 
             +---------------------------------------------------+
             |                                                   |
             |                   WANNIER90                       |
             |                                                   |
             +---------------------------------------------------+
             |                                                   |
             |        Welcome to the Maximally-Localized         |
             |        Generalized Wannier Functions code         |
             |            http://www.wannier.org                 |
             |                                                   |
             |                                                   |
             |  Wannier90 Developer Group:                       |
             |    Giovanni Pizzi    (EPFL)                       |
             |    Valerio Vitale    (Cambridge)                  |
             |    David Vanderbilt  (Rutgers University)         |
             |    Nicola Marzari    (EPFL)                       |
             |    Ivo Souza         (Universidad del Pais Vasco) |
             |    Arash A. Mostofi  (Imperial College London)    |
             |    Jonathan R. Yates (University of Oxford)       |
             |                                                   |
             |  For the full list of Wannier90 3.x authors,      |
             |  please check the code documentation and the      |
             |  README on the GitHub page of the code            |
             |                                                   |
             |                                                   |
             |  Please cite                                      |
             |                                                   |
             |  [ref] "Wannier90 as a community code:            |
             |        new features and applications",            |
             |        G. Pizzi et al., J. Phys. Cond. Matt. 32,  |
             |        165902 (2020).                             |
             |        http://doi.org/10.1088/1361-648X/ab51ff    |
             |                                                   |
             |  in any publications arising from the use of      |
             |  this code. For the method please cite            |
             |                                                   |
             |  [ref] "Maximally Localized Generalised Wannier   |
             |         Functions for Composite Energy Bands"     |
             |         N. Marzari and D. Vanderbilt              |
             |         Phys. Rev. B 56 12847 (1997)              |
             |                                                   |
             |  [ref] "Maximally Localized Wannier Functions     |
             |         for Entangled Energy Bands"               |
             |         I. Souza, N. Marzari and D. Vanderbilt    |
             |         Phys. Rev. B 65 035109 (2001)             |
             |                                                   |
             |                                                   |
             | Copyright (c) 1996-2020                           |
             |        The Wannier90 Developer Group and          |
             |        individual contributors                    |
             |                                                   |
             |      Release: 3.1.0        5th March    2020      |
             |                                                   |
             | This program is free software; you can            |
             | redistribute it and/or modify it under the terms  |
             | of the GNU General Public License as published by |
             | the Free Software Foundation; either version 2 of |
             | the License, or (at your option) any later version|
             |                                                   |
             | This program is distributed in the hope that it   |
             | will be useful, but WITHOUT ANY WARRANTY; without |
             | even the implied warranty of MERCHANTABILITY or   |
             | FITNESS FOR A PARTICULAR PURPOSE. See the GNU     |
             | General Public License for more details.          |
             |                                                   |
             | You should have received a copy of the GNU General|
             | Public License along with this program; if not,   |
             | write to the Free Software Foundation, Inc.,      |
             | 675 Mass Ave, Cambridge, MA 02139, USA.           |
             |                                                   |
             +---------------------------------------------------+
             |    Execution started on 26Mar2025 at 00:38:08     |
             +---------------------------------------------------+
 
 ******************************************************************************
 * -> Using CODATA 2006 constant values                                       *
 *    (http://physics.nist.gov/cuu/Constants/index.html)                      *
 * -> Using Bohr value from CODATA                                            *
 ******************************************************************************
 

 Running in serial (with serial executable)
 
                                    ------
                                    SYSTEM
                                    ------
 
                              Lattice Vectors (Ang)
                    a_1     2.467307   0.000000   0.000000
                    a_2     1.233653   2.136750   0.000000
                    a_3     0.000000   0.000000  19.999730
 
                   Unit Cell Volume:     105.43895  (Ang^3)
 
                        Reciprocal-Space Vectors (Ang^-1)
                    b_1     2.546576  -1.470267   0.000000
                    b_2     0.000000   2.940533   0.000000
                    b_3     0.000000   0.000000   0.314164
  
 *----------------------------------------------------------------------------*
 |   Site       Fractional Coordinate          Cartesian Coordinate (Ang)     |
 +----------------------------------------------------------------------------+
 | C    1   0.00000   0.00000   0.25000   |    0.00000   0.00000   4.99993    |
 | C    2   0.33333   0.33333   0.25000   |    1.23365   0.71225   4.99993    |
 *----------------------------------------------------------------------------*
                                -----------
                                PROJECTIONS
                                -----------
  
 +----------------------------------------------------------------------------+
 |     Frac. Coord.   l mr  r        z-axis               x-axis          Z/a |
 +----------------------------------------------------------------------------+
 |  0.00  0.00  0.25  1  1  1  0.000  0.000  1.000  1.000  0.000  0.000   1.0 |
 |  0.33  0.33  0.25  1  1  1  0.000  0.000  1.000  1.000  0.000  0.000   1.0 |
 +----------------------------------------------------------------------------+
  
                                ------------
                                K-POINT GRID
                                ------------
  
             Grid size = 12 x 12 x  1      Total points =  144
  
 *----------------------------------------------------------------------------*
 | k-point      Fractional Coordinate        Cartesian Coordinate (Ang^-1)    |
 +----------------------------------------------------------------------------+
 |     1    0.00000   0.00000   0.00000   |    0.00000   0.00000   0.00000    |
 |     2    0.00000   0.08333   0.00000   |    0.00000   0.24504   0.00000    |
 |     3    0.00000   0.16667   0.00000   |    0.00000   0.49009   0.00000    |
 |     4    0.00000   0.25000   0.00000   |    0.00000   0.73513   0.00000    |
 |     5    0.00000   0.33333   0.00000   |    0.00000   0.98018   0.00000    |
 |     6    0.00000   0.41667   0.00000   |    0.00000   1.22522   0.00000    |
 |     7    0.00000   0.50000   0.00000   |    0.00000   1.47027   0.00000    |
 |     8    0.00000   0.58333   0.00000   |    0.00000   1.71531   0.00000    |
 |     9    0.00000   0.66667   0.00000   |    0.00000   1.96036   0.00000    |
 |    10    0.00000   0.75000   0.00000   |    0.00000   2.20540   0.00000    |
 |    11    0.00000   0.83333   0.00000   |    0.00000   2.45044   0.00000    |
 |    12    0.00000   0.91667   0.00000   |    0.00000   2.69549   0.00000    |
 |    13    0.08333   0.00000   0.00000   |    0.21221  -0.12252   0.00000    |
 |    14    0.08333   0.08333   0.00000   |    0.21221   0.12252   0.00000    |
 |    15    0.08333   0.16667   0.00000   |    0.21221   0.36757   0.00000    |
 |    16    0.08333   0.25000   0.00000   |    0.21221   0.61261   0.00000    |
 |    17    0.08333   0.33333   0.00000   |    0.21221   0.85766   0.00000    |
 |    18    0.08333   0.41667   0.00000   |    0.21221   1.10270   0.00000    |
 |    19    0.08333   0.50000   0.00000   |    0.21221   1.34774   0.00000    |
 |    20    0.08333   0.58333   0.00000   |    0.21221   1.59279   0.00000    |
 |    21    0.08333   0.66667   0.00000   |    0.21221   1.83783   0.00000    |
 |    22    0.08333   0.75000   0.00000   |    0.21221   2.08288   0.00000    |
 |    23    0.08333   0.83333   0.00000   |    0.21221   2.32792   0.00000    |
 |    24    0.08333   0.91667   0.00000   |    0.21221   2.57297   0.00000    |
 |    25    0.16667   0.00000   0.00000   |    0.42443  -0.24504   0.00000    |
 |    26    0.16667   0.08333   0.00000   |    0.42443  -0.00000   0.00000    |
 |    27    0.16667   0.16667   0.00000   |    0.42443   0.24504   0.00000    |
 |    28    0.16667   0.25000   0.00000   |    0.42443   0.49009   0.00000    |
 |    29    0.16667   0.33333   0.00000   |    0.42443   0.73513   0.00000    |
 |    30    0.16667   0.41667   0.00000   |    0.42443   0.98018   0.00000    |
 |    31    0.16667   0.50000   0.00000   |    0.42443   1.22522   0.00000    |
 |    32    0.16667   0.58333   0.00000   |    0.42443   1.47027   0.00000    |
 |    33    0.16667   0.66667   0.00000   |    0.42443   1.71531   0.00000    |
 |    34    0.16667   0.75000   0.00000   |    0.42443   1.96036   0.00000    |
 |    35    0.16667   0.83333   0.00000   |    0.42443   2.20540   0.00000    |
 |    36    0.16667   0.91667   0.00000   |    0.42443   2.45044   0.00000    |
 |    37    0.25000   0.00000   0.00000   |    0.63664  -0.36757   0.00000    |
 |    38    0.25000   0.08333   0.00000   |    0.63664  -0.12252   0.00000    |
 |    39    0.25000   0.16667   0.00000   |    0.63664   0.12252   0.00000    |
 |    40    0.25000   0.25000   0.00000   |    0.63664   0.36757   0.00000    |
 |    41    0.25000   0.33333   0.00000   |    0.63664   0.61261   0.00000    |
 |    42    0.25000   0.41667   0.00000   |    0.63664   0.85766   0.00000    |
 |    43    0.25000   0.50000   0.00000   |    0.63664   1.10270   0.00000    |
 |    44    0.25000   0.58333   0.00000   |    0.63664   1.34774   0.00000    |
 |    45    0.25000   0.66667   0.00000   |    0.63664   1.59279   0.00000    |
 |    46    0.25000   0.75000   0.00000   |    0.63664   1.83783   0.00000    |
 |    47    0.25000   0.83333   0.00000   |    0.63664   2.08288   0.00000    |
 |    48    0.25000   0.91667   0.00000   |    0.63664   2.32792   0.00000    |
 |    49    0.33333   0.00000   0.00000   |    0.84886  -0.49009   0.00000    |
 |    50    0.33333   0.08333   0.00000   |    0.84886  -0.24504   0.00000    |
 |    51    0.33333   0.16667   0.00000   |    0.84886   0.00000   0.00000    |
 |    52    0.33333   0.25000   0.00000   |    0.84886   0.24504   0.00000    |
 |    53    0.33333   0.33333   0.00000   |    0.84886   0.49009   0.00000    |
 |    54    0.33333   0.41667   0.00000   |    0.84886   0.73513   0.00000    |
 |    55    0.33333   0.50000   0.00000   |    0.84886   0.98018   0.00000    |
 |    56    0.33333   0.58333   0.00000   |    0.84886   1.22522   0.00000    |
 |    57    0.33333   0.66667   0.00000   |    0.84886   1.47027   0.00000    |
 |    58    0.33333   0.75000   0.00000   |    0.84886   1.71531   0.00000    |
 |    59    0.33333   0.83333   0.00000   |    0.84886   1.96036   0.00000    |
 |    60    0.33333   0.91667   0.00000   |    0.84886   2.20540   0.00000    |
 |    61    0.41667   0.00000   0.00000   |    1.06107  -0.61261   0.00000    |
 |    62    0.41667   0.08333   0.00000   |    1.06107  -0.36757   0.00000    |
 |    63    0.41667   0.16667   0.00000   |    1.06107  -0.12252   0.00000    |
 |    64    0.41667   0.25000   0.00000   |    1.06107   0.12252   0.00000    |
 |    65    0.41667   0.33333   0.00000   |    1.06107   0.36757   0.00000    |
 |    66    0.41667   0.41667   0.00000   |    1.06107   0.61261   0.00000    |
 |    67    0.41667   0.50000   0.00000   |    1.06107   0.85766   0.00000    |
 |    68    0.41667   0.58333   0.00000   |    1.06107   1.10270   0.00000    |
 |    69    0.41667   0.66667   0.00000   |    1.06107   1.34774   0.00000    |
 |    70    0.41667   0.75000   0.00000   |    1.06107   1.59279   0.00000    |
 |    71    0.41667   0.83333   0.00000   |    1.06107   1.83783   0.00000    |
 |    72    0.41667   0.91667   0.00000   |    1.06107   2.08288   0.00000    |
 |    73    0.50000   0.00000   0.00000   |    1.27329  -0.73513   0.00000    |
 |    74    0.50000   0.08333   0.00000   |    1.27329  -0.49009   0.00000    |
 |    75    0.50000   0.16667   0.00000   |    1.27329  -0.24504   0.00000    |
 |    76    0.50000   0.25000   0.00000   |    1.27329  -0.00000   0.00000    |
 |    77    0.50000   0.33333   0.00000   |    1.27329   0.24504   0.00000    |
 |    78    0.50000   0.41667   0.00000   |    1.27329   0.49009   0.00000    |
 |    79    0.50000   0.50000   0.00000   |    1.27329   0.73513   0.00000    |
 |    80    0.50000   0.58333   0.00000   |    1.27329   0.98018   0.00000    |
 |    81    0.50000   0.66667   0.00000   |    1.27329   1.22522   0.00000    |
 |    82    0.50000   0.75000   0.00000   |    1.27329   1.47027   0.00000    |
 |    83    0.50000   0.83333   0.00000   |    1.27329   1.71531   0.00000    |
 |    84    0.50000   0.91667   0.00000   |    1.27329   1.96036   0.00000    |
 |    85    0.58333   0.00000   0.00000   |    1.48550  -0.85766   0.00000    |
 |    86    0.58333   0.08333   0.00000   |    1.48550  -0.61261   0.00000    |
 |    87    0.58333   0.16667   0.00000   |    1.48550  -0.36757   0.00000    |
 |    88    0.58333   0.25000   0.00000   |    1.48550  -0.12252   0.00000    |
 |    89    0.58333   0.33333   0.00000   |    1.48550   0.12252   0.00000    |
 |    90    0.58333   0.41667   0.00000   |    1.48550   0.36757   0.00000    |
 |    91    0.58333   0.50000   0.00000   |    1.48550   0.61261   0.00000    |
 |    92    0.58333   0.58333   0.00000   |    1.48550   0.85766   0.00000    |
 |    93    0.58333   0.66667   0.00000   |    1.48550   1.10270   0.00000    |
 |    94    0.58333   0.75000   0.00000   |    1.48550   1.34774   0.00000    |
 |    95    0.58333   0.83333   0.00000   |    1.48550   1.59279   0.00000    |
 |    96    0.58333   0.91667   0.00000   |    1.48550   1.83783   0.00000    |
 |    97    0.66667   0.00000   0.00000   |    1.69772  -0.98018   0.00000    |
 |    98    0.66667   0.08333   0.00000   |    1.69772  -0.73513   0.00000    |
 |    99    0.66667   0.16667   0.00000   |    1.69772  -0.49009   0.00000    |
 |   100    0.66667   0.25000   0.00000   |    1.69772  -0.24504   0.00000    |
 |   101    0.66667   0.33333   0.00000   |    1.69772  -0.00000   0.00000    |
 |   102    0.66667   0.41667   0.00000   |    1.69772   0.24504   0.00000    |
 |   103    0.66667   0.50000   0.00000   |    1.69772   0.49009   0.00000    |
 |   104    0.66667   0.58333   0.00000   |    1.69772   0.73513   0.00000    |
 |   105    0.66667   0.66667   0.00000   |    1.69772   0.98018   0.00000    |
 |   106    0.66667   0.75000   0.00000   |    1.69772   1.22522   0.00000    |
 |   107    0.66667   0.83333   0.00000   |    1.69772   1.47027   0.00000    |
 |   108    0.66667   0.91667   0.00000   |    1.69772   1.71531   0.00000    |
 |   109    0.75000   0.00000   0.00000   |    1.90993  -1.10270   0.00000    |
 |   110    0.75000   0.08333   0.00000   |    1.90993  -0.85766   0.00000    |
 |   111    0.75000   0.16667   0.00000   |    1.90993  -0.61261   0.00000    |
 |   112    0.75000   0.25000   0.00000   |    1.90993  -0.36757   0.00000    |
 |   113    0.75000   0.33333   0.00000   |    1.90993  -0.12252   0.00000    |
 |   114    0.75000   0.41667   0.00000   |    1.90993   0.12252   0.00000    |
 |   115    0.75000   0.50000   0.00000   |    1.90993   0.36757   0.00000    |
 |   116    0.75000   0.58333   0.00000   |    1.90993   0.61261   0.00000    |
 |   117    0.75000   0.66667   0.00000   |    1.90993   0.85766   0.00000    |
 |   118    0.75000   0.75000   0.00000   |    1.90993   1.10270   0.00000    |
 |   119    0.75000   0.83333   0.00000   |    1.90993   1.34774   0.00000    |
 |   120    0.75000   0.91667   0.00000   |    1.90993   1.59279   0.00000    |
 |   121    0.83333   0.00000   0.00000   |    2.12215  -1.22522   0.00000    |
 |   122    0.83333   0.08333   0.00000   |    2.12215  -0.98018   0.00000    |
 |   123    0.83333   0.16667   0.00000   |    2.12215  -0.73513   0.00000    |
 |   124    0.83333   0.25000   0.00000   |    2.12215  -0.49009   0.00000    |
 |   125    0.83333   0.33333   0.00000   |    2.12215  -0.24504   0.00000    |
 |   126    0.83333   0.41667   0.00000   |    2.12215   0.00000   0.00000    |
 |   127    0.83333   0.50000   0.00000   |    2.12215   0.24504   0.00000    |
 |   128    0.83333   0.58333   0.00000   |    2.12215   0.49009   0.00000    |
 |   129    0.83333   0.66667   0.00000   |    2.12215   0.73513   0.00000    |
 |   130    0.83333   0.75000   0.00000   |    2.12215   0.98018   0.00000    |
 |   131    0.83333   0.83333   0.00000   |    2.12215   1.22522   0.00000    |
 |   132    0.83333   0.91667   0.00000   |    2.12215   1.47027   0.00000    |
 |   133    0.91667   0.00000   0.00000   |    2.33436  -1.34774   0.00000    |
 |   134    0.91667   0.08333   0.00000   |    2.33436  -1.10270   0.00000    |
 |   135    0.91667   0.16667   0.00000   |    2.33436  -0.85766   0.00000    |
 |   136    0.91667   0.25000   0.00000   |    2.33436  -0.61261   0.00000    |
 |   137    0.91667   0.33333   0.00000   |    2.33436  -0.36757   0.00000    |
 |   138    0.91667   0.41667   0.00000   |    2.33436  -0.12252   0.00000    |
 |   139    0.91667   0.50000   0.00000   |    2.33436   0.12252   0.00000    |
 |   140    0.91667   0.58333   0.00000   |    2.33436   0.36757   0.00000    |
 |   141    0.91667   0.66667   0.00000   |    2.33436   0.61261   0.00000    |
 |   142    0.91667   0.75000   0.00000   |    2.33436   0.85766   0.00000    |
 |   143    0.91667   0.83333   0.00000   |    2.33436   1.10270   0.00000    |
 |   144    0.91667   0.91667   0.00000   |    2.33436   1.34774   0.00000    |
 *----------------------------------------------------------------------------*
  
  
 *---------------------------------- MAIN ------------------------------------*
 |  Number of Wannier Functions               :                 2             |
 |  Number of Objective Wannier Functions     :                 2             |
 |  Number of input Bloch states              :                16             |
 |  Output verbosity (1=low, 5=high)          :                 3             |
 |  Timing Level (1=low, 5=high)              :                 1             |
 |  Optimisation (0=memory, 3=speed)          :                 3             |
 |  Length Unit                               :               Ang             |
 |  Post-processing setup (write *.nnkp)      :                 F             |
 |  Using Gamma-only branch of algorithms     :                 F             |
 |  CP code post-processing                   :                 F             |
 |  Wavefunction (UNK) file-type              :       unformatted             |
 |  Wavefunction spin channel                 :                up             |
 *----------------------------------------------------------------------------*
 *------------------------------- WANNIERISE ---------------------------------*
 |  Total number of iterations                :               500             |
 |  Number of CG steps before reset           :                 5             |
 |  Trial step length for line search         :             2.000             |
 |  Convergence tolerence                     :         0.100E-09             |
 |  Convergence window                        :                -1             |
 |  Iterations between writing output         :                50             |
 |  Iterations between backing up to disk     :               100             |
 |  Write r^2_nm to file                      :                 F             |
 |  Write xyz WF centres to file              :                 T             |
 |  Write on-site energies <0n|H|0n> to file  :                 F             |
 |  Use guiding centre to control phases      :                 F             |
 |  Use phases for initial projections        :                 F             |
 |  Iterations before starting guiding centres:                 0             |
 |  Iterations between using guiding centres  :                 1             |
 |  Perform selective localization            :                 F             |
 |  Use constrains in selective localization  :                 F             |
 |  Value of the Lagrange multiplier          :         0.100E+01             |
 *----------------------------------------------------------------------------*
 *------------------------------- DISENTANGLE --------------------------------*
 |  Using band disentanglement                :                 T             |
 |  Total number of iterations                :               200             |
 |  Mixing ratio                              :             0.500             |
 |  Convergence tolerence                     :         1.000E-10             |
 |  Convergence window                        :                 3             |
 *----------------------------------------------------------------------------*
 *-------------------------------- PLOTTING ----------------------------------*
 |  Plotting Wannier functions                :                 T             |
 |   Size of supercell for plotting           :     3x    3x    3             |
 |   Plotting mode (molecule or crystal)      :           crystal             |
 |   Plotting format                          :          xcrysden             |
 |   Plot radius                              :             3.500             |
 |   Plot scale                               :             1.000             |
 *----------------------------------------------------------------------------*
 |  Plotting Fermi surface                    :                 F             |
 |   Number of plotting points (along b_1)    :                50             |
 |   Plotting format                          :          xcrysden             |
 *----------------------------------------------------------------------------*
 |  Plotting interpolated bandstructure       :                 T             |
 |   Number of K-path sections                :                 2             |
 |   Divisions along first K-path section     :               100             |
 |   Output format                            :           gnuplot             |
 |   Output mode                              :               s-k             |
 *----------------------------------------------------------------------------*
 |   K-space path sections:                                                   |
 |    From: K       0.667  0.333  0.000     To: G       0.000  0.000  0.000   |
 |    From: G       0.000  0.000  0.000     To: M       0.500  0.000  0.000   |
 *----------------------------------------------------------------------------*
 |  Plotting Hamiltonian in WF basis          :                 T             |
 *----------------------------------------------------------------------------*
 |  Writing data for Van der Waals post-proc  :                 F             |
 *----------------------------------------------------------------------------*
 *------------------------------- TRANSPORT ----------------------------------*
 |  Transport mode                            :              bulk             |
 |   Hamiltonian from external files          :                 F             |
 |   System extended in                       :              none             |
 |   Centre of the unit cell to which WF are translated (fract. coords):      |
 |                                       0.000000,    0.000000,    0.000000   |
 |  Fermi energy (eV)                         :             0.000             |
 *----------------------------------------------------------------------------*
 Time to read parameters        0.016 (sec)

 *---------------------------------- K-MESH ----------------------------------*
 +----------------------------------------------------------------------------+
 |                    Distance to Nearest-Neighbour Shells                    |
 |                    ------------------------------------                    |
 |          Shell             Distance (Ang^-1)          Multiplicity         |
 |          -----             -----------------          ------------         |
 |             1                   0.245044                      6            |
 |             2                   0.314164                      2            |
 |             3                   0.398429                     12            |
 |             4                   0.424429                      6            |
 |             5                   0.490089                      6            |
 |             6                   0.528052                     12            |
 |             7                   0.582139                     12            |
 |             8                   0.628327                      2            |
 |             9                   0.648327                     12            |
 |            10                   0.674419                     12            |
 |            11                   0.720435                     24            |
 |            12                   0.735133                      6            |
 |            13                   0.758245                     12            |
 |            14                   0.796858                     12            |
 |            15                   0.799450                     12            |
 |            16                   0.848859                      6            |
 |            17                   0.883520                     12            |
 |            18                   0.902841                     24            |
 |            19                   0.905130                     12            |
 |            20                   0.937714                     24            |
 |            21                   0.942491                      2            |
 |            22                   0.967066                     12            |
 |            23                   0.973825                     12            |
 |            24                   0.980178                      6            |
 |            25                   1.029294                     12            |
 |            26                   1.033648                     12            |
 |            27                   1.056104                     12            |
 |            28                   1.062297                     12            |
 |            29                   1.068124                     12            |
 |            30                   1.084160                     24            |
 |            31                   1.113368                     24            |
 |            32                   1.122935                     12            |
 |            33                   1.143947                     24            |
 |            34                   1.164278                     12            |
 |            35                   1.166054                     24            |
 |            36                   1.195286                     12            |
 +----------------------------------------------------------------------------+
 | The b-vectors are chosen automatically                                     |
 | Shell:  1 Multiplicity:  6                                                 |
 | b-vector 1 :        0.000000    0.245044    0.000000      (Ang^-1)         |
 | b-vector 2 :        0.212215   -0.122522    0.000000      (Ang^-1)         |
 | b-vector 3 :        0.212215    0.122522    0.000000      (Ang^-1)         |
 | b-vector 4 :        0.000000   -0.245044    0.000000      (Ang^-1)         |
 | b-vector 5 :       -0.212215    0.122522    0.000000      (Ang^-1)         |
 | b-vector 6 :       -0.212215   -0.122522    0.000000      (Ang^-1)         |
 | Shell:  1 w_b    5.5512286      (Ang^2)                                    |
 | B1 condition is not satisfied: Adding another shell                        |
 | Shell:  2 Multiplicity:  2                                                 |
 | b-vector 1 :        0.000000    0.000000    0.314164      (Ang^-1)         |
 | b-vector 2 :        0.000000    0.000000   -0.314164      (Ang^-1)         |
 | Shell:  1 w_b    5.5512286      (Ang^2)                                    |
 | Shell:  2 w_b    5.0659224      (Ang^2)                                    |
 | The following shells are used:   1,  2                                     |
 +----------------------------------------------------------------------------+
 |                        Shell   # Nearest-Neighbours                        |
 |                        -----   --------------------                        |
 |                          1               6                                 |
 |                          2               2                                 |
 +----------------------------------------------------------------------------+
 | Completeness relation is fully satisfied [Eq. (B1), PRB 56, 12847 (1997)]  |
 +----------------------------------------------------------------------------+
 |                  b_k Vectors (Ang^-1) and Weights (Ang^2)                  |
 |                  ----------------------------------------                  |
 |            No.         b_k(x)      b_k(y)      b_k(z)        w_b           |
 |            ---        --------------------------------     --------        |
 |             1         0.000000    0.245044    0.000000     5.551229        |
 |             2         0.212215   -0.122522    0.000000     5.551229        |
 |             3         0.212215    0.122522    0.000000     5.551229        |
 |             4         0.000000   -0.245044    0.000000     5.551229        |
 |             5        -0.212215    0.122522    0.000000     5.551229        |
 |             6        -0.212215   -0.122522    0.000000     5.551229        |
 |             7         0.000000    0.000000    0.314164     5.065922        |
 |             8         0.000000    0.000000   -0.314164     5.065922        |
 +----------------------------------------------------------------------------+
 |                           b_k Directions (Ang^-1)                          |
 |                           -----------------------                          |
 |            No.           x           y           z                         |
 |            ---        --------------------------------                     |
 |             1         0.000000    0.245044    0.000000                     |
 |             2         0.212215   -0.122522    0.000000                     |
 |             3         0.212215    0.122522    0.000000                     |
 |             4         0.000000    0.000000    0.314164                     |
 +----------------------------------------------------------------------------+
  
 Time to get kmesh              0.056 (sec)
 *============================================================================*
 |                              MEMORY ESTIMATE                               |
 |         Maximum RAM allocated during each phase of the calculation         |
 *============================================================================*
 |                        Disentanglement            5.90 Mb                  |
 |                            Wannierise:            0.41 Mb                  |
 |                                                                            |
 |   N.B. by setting optimisation=0 memory usage will be reduced to:          |
 |                        Disentanglement            5.90 Mb                  |
 |                            Wannierise:            0.34 Mb                  |
 |   However, this will result in more i/o and slow down the calculation      |
 |                          plot_wannier:            0.41 Mb                  |
 *----------------------------------------------------------------------------*
  
 Starting a new Wannier90 calculation ...


 Reading overlaps from grafenowan.mmn    :  Created on 26Mar2025 at  0:35:55

 Reading projections from grafenowan.amn :  Created on 26Mar2025 at  0:35:51

 Time to read overlaps          0.215 (sec)

 *------------------------------- DISENTANGLE --------------------------------*
 +----------------------------------------------------------------------------+
 |                              Energy  Windows                               |
 |                              ---------------                               |
 |                   Outer:  -10.00000  to   14.00000  (eV)                   |
 |                   Inner:   -4.00000  to    0.00000  (eV)                   |
 +----------------------------------------------------------------------------+
 |                        K-points with Frozen States                         |
 |                        ---------------------------                         |
 |     7    19    20    32    44    45    56    57    58    67    68    69    |
 |    70    71    72    73    74    78    79    80    84    86    87    88    |
 |    89    90    91   100   101   102   113   114   126   138   139          |
 +----------------------------------------------------------------------------+
   Number of target bands to extract:    2
 +----------------------------------------------------------------------------+
 |                                  Windows                                   |
 |                                  -------                                   |
 |               K-point      Ndimwin     Ndimfroz    Nfirstwin               |
 |               ----------------------------------------------               |
 |                   1           15            0           2                  |
 |                   2           15            0           2                  |
 |                   3           15            0           2                  |
 |                   4           15            0           2                  |
 |                   5           14            0           3                  |
 |                   6           14            0           3                  |
 |                   7           14            1           3                  |
 |                   8           14            0           3                  |
 |                   9           14            0           3                  |
 |                  10           15            0           2                  |
 |                  11           15            0           2                  |
 |                  12           15            0           2                  |
 |                  13           15            0           2                  |
 |                  14           15            0           2                  |
 |                  15           15            0           2                  |
 |                  16           15            0           2                  |
 |                  17           14            0           3                  |
 |                  18           14            0           3                  |
 |                  19           14            1           3                  |
 |                  20           14            1           3                  |
 |                  21           14            0           3                  |
 |                  22           14            0           3                  |
 |                  23           15            0           2                  |
 |                  24           15            0           2                  |
 |                  25           15            0           2                  |
 |                  26           15            0           2                  |
 |                  27           15            0           2                  |
 |                  28           15            0           2                  |
 |                  29           14            0           3                  |
 |                  30           14            0           3                  |
 |                  31           13            0           4                  |
 |                  32           13            1           4                  |
 |                  33           13            0           4                  |
 |                  34           14            0           3                  |
 |                  35           14            0           3                  |
 |                  36           15            0           2                  |
 |                  37           15            0           2                  |
 |                  38           15            0           2                  |
 |                  39           15            0           2                  |
 |                  40           15            0           2                  |
 |                  41           14            0           3                  |
 |                  42           14            0           3                  |
 |                  43           12            0           4                  |
 |                  44           13            2           4                  |
 |                  45           13            2           4                  |
 |                  46           12            0           4                  |
 |                  47           14            0           3                  |
 |                  48           14            0           3                  |
 |                  49           14            0           3                  |
 |                  50           14            0           3                  |
 |                  51           14            0           3                  |
 |                  52           14            0           3                  |
 |                  53           14            0           3                  |
 |                  54           14            0           3                  |
 |                  55           13            0           4                  |
 |                  56           13            2           4                  |
 |                  57           13            2           4                  |
 |                  58           13            2           4                  |
 |                  59           13            0           4                  |
 |                  60           14            0           3                  |
 |                  61           14            0           3                  |
 |                  62           14            0           3                  |
 |                  63           14            0           3                  |
 |                  64           14            0           3                  |
 |                  65           14            0           3                  |
 |                  66           14            0           3                  |
 |                  67           14            1           3                  |
 |                  68           13            1           4                  |
 |                  69           13            2           4                  |
 |                  70           13            2           4                  |
 |                  71           13            1           4                  |
 |                  72           14            1           3                  |
 |                  73           14            1           3                  |
 |                  74           14            1           3                  |
 |                  75           13            0           4                  |
 |                  76           12            0           4                  |
 |                  77           13            0           4                  |
 |                  78           14            1           3                  |
 |                  79           14            1           3                  |
 |                  80           14            1           3                  |
 |                  81           13            0           4                  |
 |                  82           12            0           4                  |
 |                  83           13            0           4                  |
 |                  84           14            1           3                  |
 |                  85           14            0           3                  |
 |                  86           14            1           3                  |
 |                  87           13            1           4                  |
 |                  88           13            2           4                  |
 |                  89           13            2           4                  |
 |                  90           13            1           4                  |
 |                  91           14            1           3                  |
 |                  92           14            0           3                  |
 |                  93           14            0           3                  |
 |                  94           14            0           3                  |
 |                  95           14            0           3                  |
 |                  96           14            0           3                  |
 |                  97           14            0           3                  |
 |                  98           14            0           3                  |
 |                  99           13            0           4                  |
 |                 100           13            2           4                  |
 |                 101           13            2           4                  |
 |                 102           13            2           4                  |
 |                 103           13            0           4                  |
 |                 104           14            0           3                  |
 |                 105           14            0           3                  |
 |                 106           14            0           3                  |
 |                 107           14            0           3                  |
 |                 108           14            0           3                  |
 |                 109           15            0           2                  |
 |                 110           14            0           3                  |
 |                 111           14            0           3                  |
 |                 112           12            0           4                  |
 |                 113           13            2           4                  |
 |                 114           13            2           4                  |
 |                 115           12            0           4                  |
 |                 116           14            0           3                  |
 |                 117           14            0           3                  |
 |                 118           15            0           2                  |
 |                 119           15            0           2                  |
 |                 120           15            0           2                  |
 |                 121           15            0           2                  |
 |                 122           15            0           2                  |
 |                 123           14            0           3                  |
 |                 124           14            0           3                  |
 |                 125           13            0           4                  |
 |                 126           13            1           4                  |
 |                 127           13            0           4                  |
 |                 128           14            0           3                  |
 |                 129           14            0           3                  |
 |                 130           15            0           2                  |
 |                 131           15            0           2                  |
 |                 132           15            0           2                  |
 |                 133           15            0           2                  |
 |                 134           15            0           2                  |
 |                 135           15            0           2                  |
 |                 136           14            0           3                  |
 |                 137           14            0           3                  |
 |                 138           14            1           3                  |
 |                 139           14            1           3                  |
 |                 140           14            0           3                  |
 |                 141           14            0           3                  |
 |                 142           15            0           2                  |
 |                 143           15            0           2                  |
 |                 144           15            0           2                  |
 +----------------------------------------------------------------------------+

                   Unitarised projection of Wannier functions                  
                   ------------------------------------------                  
   A_mn = <psi_m|g_n> --> S = A.A^+ --> U = S^-1/2.A
   In dis_project... done
   Using an inner window (linner = T)
   In dis_proj_froz...
 K-point   1 ndimwin:  15 we want the  2 leading eigenvector(s) of QPQ
  lambda(  1)= -0.000000000000
  lambda(  2)= -0.000000000000
  lambda(  3)= -0.000000000000
  lambda(  4)= -0.000000000000
  lambda(  5)= -0.000000000000
  lambda(  6)= -0.000000000000
  lambda(  7)=  0.000000000000
  lambda(  8)=  0.000000000000
  lambda(  9)=  0.000000000000
  lambda( 10)=  0.000000000000
  lambda( 11)=  0.000000000000
  lambda( 12)=  0.000000000000
  lambda( 13)=  0.000000000000
  lambda( 14)=  1.000000000000
  lambda( 15)=  1.000000000000

 K-point   2 ndimwin:  15 we want the  2 leading eigenvector(s) of QPQ
  lambda(  1)= -0.000000000000
  lambda(  2)= -0.000000000000
  lambda(  3)= -0.000000000000
  lambda(  4)= -0.000000000000
  lambda(  5)= -0.000000000000
  lambda(  6)= -0.000000000000
  lambda(  7)=  0.000000000000
  lambda(  8)=  0.000000000000
  lambda(  9)=  0.000000000000
  lambda( 10)=  0.000000000000
  lambda( 11)=  0.000000000000
  lambda( 12)=  0.000000000000
  lambda( 13)=  0.000000000000
  lambda( 14)=  1.000000000000
  lambda( 15)=  1.000000000000

 K-point   3 ndimwin:  15 we want the  2 leading eigenvector(s) of QPQ
  lambda(  1)= -0.000000000000
  lambda(  2)= -0.000000000000
  lambda(  3)= -0.000000000000
  lambda(  4)= -0.000000000000
  lambda(  5)= -0.000000000000
  lambda(  6)= -0.000000000000
  lambda(  7)= -0.000000000000
  lambda(  8)=  0.000000000000
  lambda(  9)=  0.000000000000
  lambda( 10)=  0.000000000000
  lambda( 11)=  0.000000000000
  lambda( 12)=  0.000000000000
  lambda( 13)=  0.000000000000
  lambda( 14)=  1.000000000000
  lambda( 15)=  1.000000000000

 K-point   4 ndimwin:  15 we want the  2 leading eigenvector(s) of QPQ
  lambda(  1)= -0.000000000000
  lambda(  2)= -0.000000000000
  lambda(  3)= -0.000000000000
  lambda(  4)= -0.000000000000
  lambda(  5)= -0.000000000000
  lambda(  6)= -0.000000000000
  lambda(  7)=  0.000000000000
  lambda(  8)=  0.000000000000
  lambda(  9)=  0.000000000000
  lambda( 10)=  0.000000000000
  lambda( 11)=  0.000000000000
  lambda( 12)=  0.000000000000
  lambda( 13)=  0.000000000000
  lambda( 14)=  1.000000000000
  lambda( 15)=  1.000000000000

 K-point   5 ndimwin:  14 we want the  2 leading eigenvector(s) of QPQ
  lambda(  1)= -0.000000000000
  lambda(  2)= -0.000000000000
  lambda(  3)= -0.000000000000
  lambda(  4)= -0.000000000000
  lambda(  5)= -0.000000000000
  lambda(  6)= -0.000000000000
  lambda(  7)= -0.000000000000
  lambda(  8)= -0.000000000000
  lambda(  9)=  0.000000000000
  lambda( 10)=  0.000000000000
  lambda( 11)=  0.000000000000
  lambda( 12)=  0.000000000000
  lambda( 13)=  1.000000000000
  lambda( 14)=  1.000000000000

 K-point   6 ndimwin:  14 we want the  2 leading eigenvector(s) of QPQ
  lambda(  1)= -0.000000000000
  lambda(  2)= -0.000000000000
  lambda(  3)= -0.000000000000
  lambda(  4)= -0.000000000000
  lambda(  5)= -0.000000000000
  lambda(  6)= -0.000000000000
  lambda(  7)=  0.000000000000
  lambda(  8)=  0.000000000000
  lambda(  9)=  0.000000000000
  lambda( 10)=  0.000000000000
  lambda( 11)=  0.000000000000
  lambda( 12)=  0.000000000000
  lambda( 13)=  1.000000000000
  lambda( 14)=  1.000000000000

 K-point   7 ndimwin:  14 we want the  1 leading eigenvector(s) of QPQ
  lambda(  1)= -0.000000000000
  lambda(  2)= -0.000000000000
  lambda(  3)= -0.000000000000
  lambda(  4)= -0.000000000000
  lambda(  5)= -0.000000000000
  lambda(  6)= -0.000000000000
  lambda(  7)=  0.000000000000
  lambda(  8)=  0.000000000000
  lambda(  9)=  0.000000000000
  lambda( 10)=  0.000000000000
  lambda( 11)=  0.000000000000
  lambda( 12)=  0.000000000000
  lambda( 13)=  0.033533186831
  lambda( 14)=  1.000000000000

 K-point   8 ndimwin:  14 we want the  2 leading eigenvector(s) of QPQ
  lambda(  1)= -0.000000000000
  lambda(  2)= -0.000000000000
  lambda(  3)= -0.000000000000
  lambda(  4)= -0.000000000000
  lambda(  5)= -0.000000000000
  lambda(  6)=  0.000000000000
  lambda(  7)=  0.000000000000
  lambda(  8)=  0.000000000000
  lambda(  9)=  0.000000000000
  lambda( 10)=  0.000000000000
  lambda( 11)=  0.000000000000
  lambda( 12)=  0.000000000000
  lambda( 13)=  1.000000000000
  lambda( 14)=  1.000000000000

 K-point   9 ndimwin:  14 we want the  2 leading eigenvector(s) of QPQ
  lambda(  1)= -0.000000000000
  lambda(  2)= -0.000000000000
  lambda(  3)= -0.000000000000
  lambda(  4)= -0.000000000000
  lambda(  5)= -0.000000000000
  lambda(  6)=  0.000000000000
  lambda(  7)=  0.000000000000
  lambda(  8)=  0.000000000000
  lambda(  9)=  0.000000000000
  lambda( 10)=  0.000000000000
  lambda( 11)=  0.000000000000
  lambda( 12)=  0.000000000000
  lambda( 13)=  1.000000000000
  lambda( 14)=  1.000000000000

 K-point  10 ndimwin:  15 we want the  2 leading eigenvector(s) of QPQ
  lambda(  1)= -0.000000000000
  lambda(  2)= -0.000000000000
  lambda(  3)= -0.000000000000
  lambda(  4)= -0.000000000000
  lambda(  5)= -0.000000000000
  lambda(  6)= -0.000000000000
  lambda(  7)= -0.000000000000
  lambda(  8)=  0.000000000000
  lambda(  9)=  0.000000000000
  lambda( 10)=  0.000000000000
  lambda( 11)=  0.000000000000
  lambda( 12)=  0.000000000000
  lambda( 13)=  0.000000000000
  lambda( 14)=  1.000000000000
  lambda( 15)=  1.000000000000

 K-point  11 ndimwin:  15 we want the  2 leading eigenvector(s) of QPQ
  lambda(  1)= -0.000000000000
  lambda(  2)= -0.000000000000
  lambda(  3)= -0.000000000000
  lambda(  4)= -0.000000000000
  lambda(  5)= -0.000000000000
  lambda(  6)= -0.000000000000
  lambda(  7)=  0.000000000000
  lambda(  8)=  0.000000000000
  lambda(  9)=  0.000000000000
  lambda( 10)=  0.000000000000
  lambda( 11)=  0.000000000000
  lambda( 12)=  0.000000000000
  lambda( 13)=  0.000000000000
  lambda( 14)=  1.000000000000
  lambda( 15)=  1.000000000000

 K-point  12 ndimwin:  15 we want the  2 leading eigenvector(s) of QPQ
  lambda(  1)= -0.000000000000
  lambda(  2)= -0.000000000000
  lambda(  3)= -0.000000000000
  lambda(  4)= -0.000000000000
  lambda(  5)= -0.000000000000
  lambda(  6)= -0.000000000000
  lambda(  7)=  0.000000000000
  lambda(  8)=  0.000000000000
  lambda(  9)=  0.000000000000
  lambda( 10)=  0.000000000000
  lambda( 11)=  0.000000000000
  lambda( 12)=  0.000000000000
  lambda( 13)=  0.000000000000
  lambda( 14)=  1.000000000000
  lambda( 15)=  1.000000000000

 K-point  13 ndimwin:  15 we want the  2 leading eigenvector(s) of QPQ
  lambda(  1)= -0.000000000000
  lambda(  2)= -0.000000000000
  lambda(  3)= -0.000000000000
  lambda(  4)= -0.000000000000
  lambda(  5)= -0.000000000000
  lambda(  6)= -0.000000000000
  lambda(  7)= -0.000000000000
  lambda(  8)=  0.000000000000
  lambda(  9)=  0.000000000000
  lambda( 10)=  0.000000000000
  lambda( 11)=  0.000000000000
  lambda( 12)=  0.000000000000
  lambda( 13)=  0.000000000000
  lambda( 14)=  1.000000000000
  lambda( 15)=  1.000000000000

 K-point  14 ndimwin:  15 we want the  2 leading eigenvector(s) of QPQ
  lambda(  1)= -0.000000000000
  lambda(  2)= -0.000000000000
  lambda(  3)= -0.000000000000
  lambda(  4)= -0.000000000000
  lambda(  5)= -0.000000000000
  lambda(  6)= -0.000000000000
  lambda(  7)= -0.000000000000
  lambda(  8)=  0.000000000000
  lambda(  9)=  0.000000000000
  lambda( 10)=  0.000000000000
  lambda( 11)=  0.000000000000
  lambda( 12)=  0.000000000000
  lambda( 13)=  0.000000000000
  lambda( 14)=  1.000000000000
  lambda( 15)=  1.000000000000

 K-point  15 ndimwin:  15 we want the  2 leading eigenvector(s) of QPQ
  lambda(  1)= -0.000000000000
  lambda(  2)= -0.000000000000
  lambda(  3)= -0.000000000000
  lambda(  4)= -0.000000000000
  lambda(  5)= -0.000000000000
  lambda(  6)= -0.000000000000
  lambda(  7)= -0.000000000000
  lambda(  8)=  0.000000000000
  lambda(  9)=  0.000000000000
  lambda( 10)=  0.000000000000
  lambda( 11)=  0.000000000000
  lambda( 12)=  0.000000000000
  lambda( 13)=  0.000000000000
  lambda( 14)=  1.000000000000
  lambda( 15)=  1.000000000000

 K-point  16 ndimwin:  15 we want the  2 leading eigenvector(s) of QPQ
  lambda(  1)= -0.000000000000
  lambda(  2)= -0.000000000000
  lambda(  3)= -0.000000000000
  lambda(  4)= -0.000000000000
  lambda(  5)= -0.000000000000
  lambda(  6)= -0.000000000000
  lambda(  7)=  0.000000000000
  lambda(  8)=  0.000000000000
  lambda(  9)=  0.000000000000
  lambda( 10)=  0.000000000000
  lambda( 11)=  0.000000000000
  lambda( 12)=  0.000000000000
  lambda( 13)=  0.000000000000
  lambda( 14)=  1.000000000000
  lambda( 15)=  1.000000000000

 K-point  17 ndimwin:  14 we want the  2 leading eigenvector(s) of QPQ
  lambda(  1)= -0.000000000000
  lambda(  2)= -0.000000000000
  lambda(  3)= -0.000000000000
  lambda(  4)= -0.000000000000
  lambda(  5)= -0.000000000000
  lambda(  6)= -0.000000000000
  lambda(  7)=  0.000000000000
  lambda(  8)=  0.000000000000
  lambda(  9)=  0.000000000000
  lambda( 10)=  0.000000000000
  lambda( 11)=  0.000000000000
  lambda( 12)=  0.000000000000
  lambda( 13)=  1.000000000000
  lambda( 14)=  1.000000000000

 K-point  18 ndimwin:  14 we want the  2 leading eigenvector(s) of QPQ
  lambda(  1)= -0.000000000000
  lambda(  2)= -0.000000000000
  lambda(  3)= -0.000000000000
  lambda(  4)= -0.000000000000
  lambda(  5)= -0.000000000000
  lambda(  6)=  0.000000000000
  lambda(  7)=  0.000000000000
  lambda(  8)=  0.000000000000
  lambda(  9)=  0.000000000000
  lambda( 10)=  0.000000000000
  lambda( 11)=  0.000000000000
  lambda( 12)=  0.000000000000
  lambda( 13)=  1.000000000000
  lambda( 14)=  1.000000000000

 K-point  19 ndimwin:  14 we want the  1 leading eigenvector(s) of QPQ
  lambda(  1)= -0.000000000000
  lambda(  2)= -0.000000000000
  lambda(  3)= -0.000000000000
  lambda(  4)= -0.000000000000
  lambda(  5)= -0.000000000000
  lambda(  6)= -0.000000000000
  lambda(  7)= -0.000000000000
  lambda(  8)=  0.000000000000
  lambda(  9)=  0.000000000000
  lambda( 10)=  0.000000000000
  lambda( 11)=  0.000000000000
  lambda( 12)=  0.000000000000
  lambda( 13)=  0.040486218523
  lambda( 14)=  1.000000000000

 K-point  20 ndimwin:  14 we want the  1 leading eigenvector(s) of QPQ
  lambda(  1)= -0.000000000000
  lambda(  2)= -0.000000000000
  lambda(  3)= -0.000000000000
  lambda(  4)= -0.000000000000
  lambda(  5)= -0.000000000000
  lambda(  6)= -0.000000000000
  lambda(  7)= -0.000000000000
  lambda(  8)= -0.000000000000
  lambda(  9)=  0.000000000000
  lambda( 10)=  0.000000000000
  lambda( 11)=  0.000000000000
  lambda( 12)=  0.000000000000
  lambda( 13)=  0.040485775011
  lambda( 14)=  1.000000000000

 K-point  21 ndimwin:  14 we want the  2 leading eigenvector(s) of QPQ
  lambda(  1)= -0.000000000000
  lambda(  2)= -0.000000000000
  lambda(  3)= -0.000000000000
  lambda(  4)= -0.000000000000
  lambda(  5)= -0.000000000000
  lambda(  6)= -0.000000000000
  lambda(  7)= -0.000000000000
  lambda(  8)=  0.000000000000
  lambda(  9)=  0.000000000000
  lambda( 10)=  0.000000000000
  lambda( 11)=  0.000000000000
  lambda( 12)=  0.000000000000
  lambda( 13)=  1.000000000000
  lambda( 14)=  1.000000000000

 K-point  22 ndimwin:  14 we want the  2 leading eigenvector(s) of QPQ
  lambda(  1)= -0.000000000000
  lambda(  2)= -0.000000000000
  lambda(  3)= -0.000000000000
  lambda(  4)= -0.000000000000
  lambda(  5)= -0.000000000000
  lambda(  6)= -0.000000000000
  lambda(  7)=  0.000000000000
  lambda(  8)=  0.000000000000
  lambda(  9)=  0.000000000000
  lambda( 10)=  0.000000000000
  lambda( 11)=  0.000000000000
  lambda( 12)=  0.000000000000
  lambda( 13)=  1.000000000000
  lambda( 14)=  1.000000000000

 K-point  23 ndimwin:  15 we want the  2 leading eigenvector(s) of QPQ
  lambda(  1)= -0.000000000000
  lambda(  2)= -0.000000000000
  lambda(  3)= -0.000000000000
  lambda(  4)= -0.000000000000
  lambda(  5)= -0.000000000000
  lambda(  6)= -0.000000000000
  lambda(  7)= -0.000000000000
  lambda(  8)= -0.000000000000
  lambda(  9)=  0.000000000000
  lambda( 10)=  0.000000000000
  lambda( 11)=  0.000000000000
  lambda( 12)=  0.000000000000
  lambda( 13)=  0.000000000000
  lambda( 14)=  1.000000000000
  lambda( 15)=  1.000000000000

 K-point  24 ndimwin:  15 we want the  2 leading eigenvector(s) of QPQ
  lambda(  1)= -0.000000000000
  lambda(  2)= -0.000000000000
  lambda(  3)= -0.000000000000
  lambda(  4)= -0.000000000000
  lambda(  5)= -0.000000000000
  lambda(  6)= -0.000000000000
  lambda(  7)=  0.000000000000
  lambda(  8)=  0.000000000000
  lambda(  9)=  0.000000000000
  lambda( 10)=  0.000000000000
  lambda( 11)=  0.000000000000
  lambda( 12)=  0.000000000000
  lambda( 13)=  0.000000000000
  lambda( 14)=  1.000000000000
  lambda( 15)=  1.000000000000

 K-point  25 ndimwin:  15 we want the  2 leading eigenvector(s) of QPQ
  lambda(  1)= -0.000000000000
  lambda(  2)= -0.000000000000
  lambda(  3)= -0.000000000000
  lambda(  4)= -0.000000000000
  lambda(  5)= -0.000000000000
  lambda(  6)= -0.000000000000
  lambda(  7)= -0.000000000000
  lambda(  8)= -0.000000000000
  lambda(  9)=  0.000000000000
  lambda( 10)=  0.000000000000
  lambda( 11)=  0.000000000000
  lambda( 12)=  0.000000000000
  lambda( 13)=  0.000000000000
  lambda( 14)=  1.000000000000
  lambda( 15)=  1.000000000000

 K-point  26 ndimwin:  15 we want the  2 leading eigenvector(s) of QPQ
  lambda(  1)= -0.000000000000
  lambda(  2)= -0.000000000000
  lambda(  3)= -0.000000000000
  lambda(  4)= -0.000000000000
  lambda(  5)= -0.000000000000
  lambda(  6)=  0.000000000000
  lambda(  7)=  0.000000000000
  lambda(  8)=  0.000000000000
  lambda(  9)=  0.000000000000
  lambda( 10)=  0.000000000000
  lambda( 11)=  0.000000000000
  lambda( 12)=  0.000000000000
  lambda( 13)=  0.000000000000
  lambda( 14)=  1.000000000000
  lambda( 15)=  1.000000000000

 K-point  27 ndimwin:  15 we want the  2 leading eigenvector(s) of QPQ
  lambda(  1)= -0.000000000000
  lambda(  2)= -0.000000000000
  lambda(  3)= -0.000000000000
  lambda(  4)= -0.000000000000
  lambda(  5)= -0.000000000000
  lambda(  6)= -0.000000000000
  lambda(  7)= -0.000000000000
  lambda(  8)= -0.000000000000
  lambda(  9)=  0.000000000000
  lambda( 10)=  0.000000000000
  lambda( 11)=  0.000000000000
  lambda( 12)=  0.000000000000
  lambda( 13)=  0.000000000000
  lambda( 14)=  1.000000000000
  lambda( 15)=  1.000000000000

 K-point  28 ndimwin:  15 we want the  2 leading eigenvector(s) of QPQ
  lambda(  1)= -0.000000000000
  lambda(  2)= -0.000000000000
  lambda(  3)= -0.000000000000
  lambda(  4)= -0.000000000000
  lambda(  5)= -0.000000000000
  lambda(  6)= -0.000000000000
  lambda(  7)=  0.000000000000
  lambda(  8)=  0.000000000000
  lambda(  9)=  0.000000000000
  lambda( 10)=  0.000000000000
  lambda( 11)=  0.000000000000
  lambda( 12)=  0.000000000000
  lambda( 13)=  0.000000000000
  lambda( 14)=  1.000000000000
  lambda( 15)=  1.000000000000

 K-point  29 ndimwin:  14 we want the  2 leading eigenvector(s) of QPQ
  lambda(  1)= -0.000000000000
  lambda(  2)= -0.000000000000
  lambda(  3)= -0.000000000000
  lambda(  4)= -0.000000000000
  lambda(  5)= -0.000000000000
  lambda(  6)=  0.000000000000
  lambda(  7)=  0.000000000000
  lambda(  8)=  0.000000000000
  lambda(  9)=  0.000000000000
  lambda( 10)=  0.000000000000
  lambda( 11)=  0.000000000000
  lambda( 12)=  0.000000000000
  lambda( 13)=  1.000000000000
  lambda( 14)=  1.000000000000

 K-point  30 ndimwin:  14 we want the  2 leading eigenvector(s) of QPQ
  lambda(  1)= -0.000000000000
  lambda(  2)= -0.000000000000
  lambda(  3)= -0.000000000000
  lambda(  4)= -0.000000000000
  lambda(  5)= -0.000000000000
  lambda(  6)=  0.000000000000
  lambda(  7)=  0.000000000000
  lambda(  8)=  0.000000000000
  lambda(  9)=  0.000000000000
  lambda( 10)=  0.000000000000
  lambda( 11)=  0.000000000000
  lambda( 12)=  0.000000000000
  lambda( 13)=  1.000000000000
  lambda( 14)=  1.000000000000

 K-point  31 ndimwin:  13 we want the  2 leading eigenvector(s) of QPQ
  lambda(  1)= -0.000000000000
  lambda(  2)= -0.000000000000
  lambda(  3)= -0.000000000000
  lambda(  4)= -0.000000000000
  lambda(  5)= -0.000000000000
  lambda(  6)= -0.000000000000
  lambda(  7)=  0.000000000000
  lambda(  8)=  0.000000000000
  lambda(  9)=  0.000000000000
  lambda( 10)=  0.000000000000
  lambda( 11)=  0.000000000000
  lambda( 12)=  1.000000000000
  lambda( 13)=  1.000000000000

 K-point  32 ndimwin:  13 we want the  1 leading eigenvector(s) of QPQ
  lambda(  1)= -0.000000000000
  lambda(  2)= -0.000000000000
  lambda(  3)= -0.000000000000
  lambda(  4)= -0.000000000000
  lambda(  5)= -0.000000000000
  lambda(  6)= -0.000000000000
  lambda(  7)=  0.000000000000
  lambda(  8)=  0.000000000000
  lambda(  9)=  0.000000000000
  lambda( 10)=  0.000000000000
  lambda( 11)=  0.000000000000
  lambda( 12)=  0.027762916597
  lambda( 13)=  1.000000000000

 K-point  33 ndimwin:  13 we want the  2 leading eigenvector(s) of QPQ
  lambda(  1)= -0.000000000000
  lambda(  2)= -0.000000000000
  lambda(  3)= -0.000000000000
  lambda(  4)= -0.000000000000
  lambda(  5)= -0.000000000000
  lambda(  6)= -0.000000000000
  lambda(  7)= -0.000000000000
  lambda(  8)=  0.000000000000
  lambda(  9)=  0.000000000000
  lambda( 10)=  0.000000000000
  lambda( 11)=  0.000000000000
  lambda( 12)=  1.000000000000
  lambda( 13)=  1.000000000000

 K-point  34 ndimwin:  14 we want the  2 leading eigenvector(s) of QPQ
  lambda(  1)= -0.000000000000
  lambda(  2)= -0.000000000000
  lambda(  3)= -0.000000000000
  lambda(  4)= -0.000000000000
  lambda(  5)= -0.000000000000
  lambda(  6)= -0.000000000000
  lambda(  7)= -0.000000000000
  lambda(  8)=  0.000000000000
  lambda(  9)=  0.000000000000
  lambda( 10)=  0.000000000000
  lambda( 11)=  0.000000000000
  lambda( 12)=  0.000000000000
  lambda( 13)=  1.000000000000
  lambda( 14)=  1.000000000000

 K-point  35 ndimwin:  14 we want the  2 leading eigenvector(s) of QPQ
  lambda(  1)= -0.000000000000
  lambda(  2)= -0.000000000000
  lambda(  3)= -0.000000000000
  lambda(  4)= -0.000000000000
  lambda(  5)= -0.000000000000
  lambda(  6)=  0.000000000000
  lambda(  7)=  0.000000000000
  lambda(  8)=  0.000000000000
  lambda(  9)=  0.000000000000
  lambda( 10)=  0.000000000000
  lambda( 11)=  0.000000000000
  lambda( 12)=  0.000000000000
  lambda( 13)=  1.000000000000
  lambda( 14)=  1.000000000000

 K-point  36 ndimwin:  15 we want the  2 leading eigenvector(s) of QPQ
  lambda(  1)= -0.000000000000
  lambda(  2)= -0.000000000000
  lambda(  3)= -0.000000000000
  lambda(  4)= -0.000000000000
  lambda(  5)= -0.000000000000
  lambda(  6)= -0.000000000000
  lambda(  7)= -0.000000000000
  lambda(  8)= -0.000000000000
  lambda(  9)=  0.000000000000
  lambda( 10)=  0.000000000000
  lambda( 11)=  0.000000000000
  lambda( 12)=  0.000000000000
  lambda( 13)=  0.000000000000
  lambda( 14)=  1.000000000000
  lambda( 15)=  1.000000000000

 K-point  37 ndimwin:  15 we want the  2 leading eigenvector(s) of QPQ
  lambda(  1)= -0.000000000000
  lambda(  2)= -0.000000000000
  lambda(  3)= -0.000000000000
  lambda(  4)= -0.000000000000
  lambda(  5)= -0.000000000000
  lambda(  6)= -0.000000000000
  lambda(  7)=  0.000000000000
  lambda(  8)=  0.000000000000
  lambda(  9)=  0.000000000000
  lambda( 10)=  0.000000000000
  lambda( 11)=  0.000000000000
  lambda( 12)=  0.000000000000
  lambda( 13)=  0.000000000000
  lambda( 14)=  1.000000000000
  lambda( 15)=  1.000000000000

 K-point  38 ndimwin:  15 we want the  2 leading eigenvector(s) of QPQ
  lambda(  1)= -0.000000000000
  lambda(  2)= -0.000000000000
  lambda(  3)= -0.000000000000
  lambda(  4)= -0.000000000000
  lambda(  5)= -0.000000000000
  lambda(  6)=  0.000000000000
  lambda(  7)=  0.000000000000
  lambda(  8)=  0.000000000000
  lambda(  9)=  0.000000000000
  lambda( 10)=  0.000000000000
  lambda( 11)=  0.000000000000
  lambda( 12)=  0.000000000000
  lambda( 13)=  0.000000000000
  lambda( 14)=  1.000000000000
  lambda( 15)=  1.000000000000

 K-point  39 ndimwin:  15 we want the  2 leading eigenvector(s) of QPQ
  lambda(  1)= -0.000000000000
  lambda(  2)= -0.000000000000
  lambda(  3)= -0.000000000000
  lambda(  4)= -0.000000000000
  lambda(  5)= -0.000000000000
  lambda(  6)= -0.000000000000
  lambda(  7)= -0.000000000000
  lambda(  8)=  0.000000000000
  lambda(  9)=  0.000000000000
  lambda( 10)=  0.000000000000
  lambda( 11)=  0.000000000000
  lambda( 12)=  0.000000000000
  lambda( 13)=  0.000000000000
  lambda( 14)=  1.000000000000
  lambda( 15)=  1.000000000000

 K-point  40 ndimwin:  15 we want the  2 leading eigenvector(s) of QPQ
  lambda(  1)= -0.000000000000
  lambda(  2)= -0.000000000000
  lambda(  3)= -0.000000000000
  lambda(  4)= -0.000000000000
  lambda(  5)= -0.000000000000
  lambda(  6)= -0.000000000000
  lambda(  7)= -0.000000000000
  lambda(  8)=  0.000000000000
  lambda(  9)=  0.000000000000
  lambda( 10)=  0.000000000000
  lambda( 11)=  0.000000000000
  lambda( 12)=  0.000000000000
  lambda( 13)=  0.000000000000
  lambda( 14)=  1.000000000000
  lambda( 15)=  1.000000000000

 K-point  41 ndimwin:  14 we want the  2 leading eigenvector(s) of QPQ
  lambda(  1)= -0.000000000000
  lambda(  2)= -0.000000000000
  lambda(  3)= -0.000000000000
  lambda(  4)= -0.000000000000
  lambda(  5)= -0.000000000000
  lambda(  6)=  0.000000000000
  lambda(  7)=  0.000000000000
  lambda(  8)=  0.000000000000
  lambda(  9)=  0.000000000000
  lambda( 10)=  0.000000000000
  lambda( 11)=  0.000000000000
  lambda( 12)=  0.000000000000
  lambda( 13)=  1.000000000000
  lambda( 14)=  1.000000000000

 K-point  42 ndimwin:  14 we want the  2 leading eigenvector(s) of QPQ
  lambda(  1)= -0.000000000000
  lambda(  2)= -0.000000000000
  lambda(  3)= -0.000000000000
  lambda(  4)= -0.000000000000
  lambda(  5)= -0.000000000000
  lambda(  6)=  0.000000000000
  lambda(  7)=  0.000000000000
  lambda(  8)=  0.000000000000
  lambda(  9)=  0.000000000000
  lambda( 10)=  0.000000000000
  lambda( 11)=  0.000000000000
  lambda( 12)=  0.000000000000
  lambda( 13)=  1.000000000000
  lambda( 14)=  1.000000000000

 K-point  43 ndimwin:  12 we want the  2 leading eigenvector(s) of QPQ
  lambda(  1)= -0.000000000000
  lambda(  2)= -0.000000000000
  lambda(  3)= -0.000000000000
  lambda(  4)= -0.000000000000
  lambda(  5)= -0.000000000000
  lambda(  6)=  0.000000000000
  lambda(  7)=  0.000000000000
  lambda(  8)=  0.000000000000
  lambda(  9)=  0.000000000000
  lambda( 10)=  0.000000000000
  lambda( 11)=  1.000000000000
  lambda( 12)=  1.000000000000

 K-point  46 ndimwin:  12 we want the  2 leading eigenvector(s) of QPQ
  lambda(  1)= -0.000000000000
  lambda(  2)= -0.000000000000
  lambda(  3)= -0.000000000000
  lambda(  4)= -0.000000000000
  lambda(  5)=  0.000000000000
  lambda(  6)=  0.000000000000
  lambda(  7)=  0.000000000000
  lambda(  8)=  0.000000000000
  lambda(  9)=  0.000000000000
  lambda( 10)=  0.000000000000
  lambda( 11)=  1.000000000000
  lambda( 12)=  1.000000000000

 K-point  47 ndimwin:  14 we want the  2 leading eigenvector(s) of QPQ
  lambda(  1)= -0.000000000000
  lambda(  2)= -0.000000000000
  lambda(  3)= -0.000000000000
  lambda(  4)= -0.000000000000
  lambda(  5)=  0.000000000000
  lambda(  6)=  0.000000000000
  lambda(  7)=  0.000000000000
  lambda(  8)=  0.000000000000
  lambda(  9)=  0.000000000000
  lambda( 10)=  0.000000000000
  lambda( 11)=  0.000000000000
  lambda( 12)=  0.000000000000
  lambda( 13)=  1.000000000000
  lambda( 14)=  1.000000000000

 K-point  48 ndimwin:  14 we want the  2 leading eigenvector(s) of QPQ
  lambda(  1)= -0.000000000000
  lambda(  2)= -0.000000000000
  lambda(  3)= -0.000000000000
  lambda(  4)= -0.000000000000
  lambda(  5)= -0.000000000000
  lambda(  6)=  0.000000000000
  lambda(  7)=  0.000000000000
  lambda(  8)=  0.000000000000
  lambda(  9)=  0.000000000000
  lambda( 10)=  0.000000000000
  lambda( 11)=  0.000000000000
  lambda( 12)=  0.000000000000
  lambda( 13)=  1.000000000000
  lambda( 14)=  1.000000000000

 K-point  49 ndimwin:  14 we want the  2 leading eigenvector(s) of QPQ
  lambda(  1)= -0.000000000000
  lambda(  2)= -0.000000000000
  lambda(  3)= -0.000000000000
  lambda(  4)= -0.000000000000
  lambda(  5)= -0.000000000000
  lambda(  6)= -0.000000000000
  lambda(  7)= -0.000000000000
  lambda(  8)= -0.000000000000
  lambda(  9)=  0.000000000000
  lambda( 10)=  0.000000000000
  lambda( 11)=  0.000000000000
  lambda( 12)=  0.000000000000
  lambda( 13)=  1.000000000000
  lambda( 14)=  1.000000000000

 K-point  50 ndimwin:  14 we want the  2 leading eigenvector(s) of QPQ
  lambda(  1)= -0.000000000000
  lambda(  2)= -0.000000000000
  lambda(  3)= -0.000000000000
  lambda(  4)= -0.000000000000
  lambda(  5)= -0.000000000000
  lambda(  6)= -0.000000000000
  lambda(  7)=  0.000000000000
  lambda(  8)=  0.000000000000
  lambda(  9)=  0.000000000000
  lambda( 10)=  0.000000000000
  lambda( 11)=  0.000000000000
  lambda( 12)=  0.000000000000
  lambda( 13)=  1.000000000000
  lambda( 14)=  1.000000000000

 K-point  51 ndimwin:  14 we want the  2 leading eigenvector(s) of QPQ
  lambda(  1)= -0.000000000000
  lambda(  2)= -0.000000000000
  lambda(  3)= -0.000000000000
  lambda(  4)= -0.000000000000
  lambda(  5)= -0.000000000000
  lambda(  6)=  0.000000000000
  lambda(  7)=  0.000000000000
  lambda(  8)=  0.000000000000
  lambda(  9)=  0.000000000000
  lambda( 10)=  0.000000000000
  lambda( 11)=  0.000000000000
  lambda( 12)=  0.000000000000
  lambda( 13)=  1.000000000000
  lambda( 14)=  1.000000000000

 K-point  52 ndimwin:  14 we want the  2 leading eigenvector(s) of QPQ
  lambda(  1)= -0.000000000000
  lambda(  2)= -0.000000000000
  lambda(  3)= -0.000000000000
  lambda(  4)= -0.000000000000
  lambda(  5)= -0.000000000000
  lambda(  6)= -0.000000000000
  lambda(  7)=  0.000000000000
  lambda(  8)=  0.000000000000
  lambda(  9)=  0.000000000000
  lambda( 10)=  0.000000000000
  lambda( 11)=  0.000000000000
  lambda( 12)=  0.000000000000
  lambda( 13)=  1.000000000000
  lambda( 14)=  1.000000000000

 K-point  53 ndimwin:  14 we want the  2 leading eigenvector(s) of QPQ
  lambda(  1)= -0.000000000000
  lambda(  2)= -0.000000000000
  lambda(  3)= -0.000000000000
  lambda(  4)= -0.000000000000
  lambda(  5)= -0.000000000000
  lambda(  6)= -0.000000000000
  lambda(  7)=  0.000000000000
  lambda(  8)=  0.000000000000
  lambda(  9)=  0.000000000000
  lambda( 10)=  0.000000000000
  lambda( 11)=  0.000000000000
  lambda( 12)=  0.000000000000
  lambda( 13)=  1.000000000000
  lambda( 14)=  1.000000000000

 K-point  54 ndimwin:  14 we want the  2 leading eigenvector(s) of QPQ
  lambda(  1)= -0.000000000000
  lambda(  2)= -0.000000000000
  lambda(  3)= -0.000000000000
  lambda(  4)= -0.000000000000
  lambda(  5)= -0.000000000000
  lambda(  6)=  0.000000000000
  lambda(  7)=  0.000000000000
  lambda(  8)=  0.000000000000
  lambda(  9)=  0.000000000000
  lambda( 10)=  0.000000000000
  lambda( 11)=  0.000000000000
  lambda( 12)=  0.000000000000
  lambda( 13)=  1.000000000000
  lambda( 14)=  1.000000000000

 K-point  55 ndimwin:  13 we want the  2 leading eigenvector(s) of QPQ
  lambda(  1)= -0.000000000000
  lambda(  2)= -0.000000000000
  lambda(  3)= -0.000000000000
  lambda(  4)= -0.000000000000
  lambda(  5)= -0.000000000000
  lambda(  6)=  0.000000000000
  lambda(  7)=  0.000000000000
  lambda(  8)=  0.000000000000
  lambda(  9)=  0.000000000000
  lambda( 10)=  0.000000000000
  lambda( 11)=  0.000000000000
  lambda( 12)=  1.000000000000
  lambda( 13)=  1.000000000000

 K-point  59 ndimwin:  13 we want the  2 leading eigenvector(s) of QPQ
  lambda(  1)= -0.000000000000
  lambda(  2)= -0.000000000000
  lambda(  3)= -0.000000000000
  lambda(  4)= -0.000000000000
  lambda(  5)= -0.000000000000
  lambda(  6)= -0.000000000000
  lambda(  7)=  0.000000000000
  lambda(  8)=  0.000000000000
  lambda(  9)=  0.000000000000
  lambda( 10)=  0.000000000000
  lambda( 11)=  0.000000000000
  lambda( 12)=  1.000000000000
  lambda( 13)=  1.000000000000

 K-point  60 ndimwin:  14 we want the  2 leading eigenvector(s) of QPQ
  lambda(  1)= -0.000000000000
  lambda(  2)= -0.000000000000
  lambda(  3)= -0.000000000000
  lambda(  4)= -0.000000000000
  lambda(  5)= -0.000000000000
  lambda(  6)= -0.000000000000
  lambda(  7)= -0.000000000000
  lambda(  8)= -0.000000000000
  lambda(  9)=  0.000000000000
  lambda( 10)=  0.000000000000
  lambda( 11)=  0.000000000000
  lambda( 12)=  0.000000000000
  lambda( 13)=  1.000000000000
  lambda( 14)=  1.000000000000

 K-point  61 ndimwin:  14 we want the  2 leading eigenvector(s) of QPQ
  lambda(  1)= -0.000000000000
  lambda(  2)= -0.000000000000
  lambda(  3)= -0.000000000000
  lambda(  4)= -0.000000000000
  lambda(  5)=  0.000000000000
  lambda(  6)=  0.000000000000
  lambda(  7)=  0.000000000000
  lambda(  8)=  0.000000000000
  lambda(  9)=  0.000000000000
  lambda( 10)=  0.000000000000
  lambda( 11)=  0.000000000000
  lambda( 12)=  0.000000000000
  lambda( 13)=  1.000000000000
  lambda( 14)=  1.000000000000

 K-point  62 ndimwin:  14 we want the  2 leading eigenvector(s) of QPQ
  lambda(  1)= -0.000000000000
  lambda(  2)= -0.000000000000
  lambda(  3)= -0.000000000000
  lambda(  4)= -0.000000000000
  lambda(  5)= -0.000000000000
  lambda(  6)= -0.000000000000
  lambda(  7)=  0.000000000000
  lambda(  8)=  0.000000000000
  lambda(  9)=  0.000000000000
  lambda( 10)=  0.000000000000
  lambda( 11)=  0.000000000000
  lambda( 12)=  0.000000000000
  lambda( 13)=  1.000000000000
  lambda( 14)=  1.000000000000

 K-point  63 ndimwin:  14 we want the  2 leading eigenvector(s) of QPQ
  lambda(  1)= -0.000000000000
  lambda(  2)= -0.000000000000
  lambda(  3)= -0.000000000000
  lambda(  4)= -0.000000000000
  lambda(  5)= -0.000000000000
  lambda(  6)= -0.000000000000
  lambda(  7)=  0.000000000000
  lambda(  8)=  0.000000000000
  lambda(  9)=  0.000000000000
  lambda( 10)=  0.000000000000
  lambda( 11)=  0.000000000000
  lambda( 12)=  0.000000000000
  lambda( 13)=  1.000000000000
  lambda( 14)=  1.000000000000

 K-point  64 ndimwin:  14 we want the  2 leading eigenvector(s) of QPQ
  lambda(  1)= -0.000000000000
  lambda(  2)= -0.000000000000
  lambda(  3)= -0.000000000000
  lambda(  4)= -0.000000000000
  lambda(  5)= -0.000000000000
  lambda(  6)= -0.000000000000
  lambda(  7)=  0.000000000000
  lambda(  8)=  0.000000000000
  lambda(  9)=  0.000000000000
  lambda( 10)=  0.000000000000
  lambda( 11)=  0.000000000000
  lambda( 12)=  0.000000000000
  lambda( 13)=  1.000000000000
  lambda( 14)=  1.000000000000

 K-point  65 ndimwin:  14 we want the  2 leading eigenvector(s) of QPQ
  lambda(  1)= -0.000000000000
  lambda(  2)= -0.000000000000
  lambda(  3)= -0.000000000000
  lambda(  4)= -0.000000000000
  lambda(  5)= -0.000000000000
  lambda(  6)= -0.000000000000
  lambda(  7)=  0.000000000000
  lambda(  8)=  0.000000000000
  lambda(  9)=  0.000000000000
  lambda( 10)=  0.000000000000
  lambda( 11)=  0.000000000000
  lambda( 12)=  0.000000000000
  lambda( 13)=  1.000000000000
  lambda( 14)=  1.000000000000

 K-point  66 ndimwin:  14 we want the  2 leading eigenvector(s) of QPQ
  lambda(  1)= -0.000000000000
  lambda(  2)= -0.000000000000
  lambda(  3)= -0.000000000000
  lambda(  4)= -0.000000000000
  lambda(  5)= -0.000000000000
  lambda(  6)= -0.000000000000
  lambda(  7)=  0.000000000000
  lambda(  8)=  0.000000000000
  lambda(  9)=  0.000000000000
  lambda( 10)=  0.000000000000
  lambda( 11)=  0.000000000000
  lambda( 12)=  0.000000000000
  lambda( 13)=  1.000000000000
  lambda( 14)=  1.000000000000

 K-point  67 ndimwin:  14 we want the  1 leading eigenvector(s) of QPQ
  lambda(  1)= -0.000000000000
  lambda(  2)= -0.000000000000
  lambda(  3)= -0.000000000000
  lambda(  4)= -0.000000000000
  lambda(  5)= -0.000000000000
  lambda(  6)= -0.000000000000
  lambda(  7)=  0.000000000000
  lambda(  8)=  0.000000000000
  lambda(  9)=  0.000000000000
  lambda( 10)=  0.000000000000
  lambda( 11)=  0.000000000000
  lambda( 12)=  0.000000000000
  lambda( 13)=  0.040482490223
  lambda( 14)=  1.000000000000

 K-point  68 ndimwin:  13 we want the  1 leading eigenvector(s) of QPQ
  lambda(  1)= -0.000000000000
  lambda(  2)= -0.000000000000
  lambda(  3)= -0.000000000000
  lambda(  4)= -0.000000000000
  lambda(  5)= -0.000000000000
  lambda(  6)= -0.000000000000
  lambda(  7)= -0.000000000000
  lambda(  8)=  0.000000000000
  lambda(  9)=  0.000000000000
  lambda( 10)=  0.000000000000
  lambda( 11)=  0.000000000000
  lambda( 12)=  0.027759487279
  lambda( 13)=  1.000000000000

 K-point  71 ndimwin:  13 we want the  1 leading eigenvector(s) of QPQ
  lambda(  1)= -0.000000000000
  lambda(  2)= -0.000000000000
  lambda(  3)= -0.000000000000
  lambda(  4)= -0.000000000000
  lambda(  5)= -0.000000000000
  lambda(  6)=  0.000000000000
  lambda(  7)=  0.000000000000
  lambda(  8)=  0.000000000000
  lambda(  9)=  0.000000000000
  lambda( 10)=  0.000000000000
  lambda( 11)=  0.000000000000
  lambda( 12)=  0.027762916614
  lambda( 13)=  1.000000000000

 K-point  72 ndimwin:  14 we want the  1 leading eigenvector(s) of QPQ
  lambda(  1)= -0.000000000000
  lambda(  2)= -0.000000000000
  lambda(  3)= -0.000000000000
  lambda(  4)= -0.000000000000
  lambda(  5)= -0.000000000000
  lambda(  6)= -0.000000000000
  lambda(  7)=  0.000000000000
[...]
  LINE --> Spread at trial step          :   1.87427805843941     
  LINE --> Slope along search direction  : -4.693684304409461E-015
  LINE --> ||SD gradient||^2             :  8.155598719976789E-013
  LINE --> Trial step length             :   2.00000000000000     
  LINE --> CG coefficient                :  0.000000000000000E+000
  WF centre and spread    1  ( -0.000000, -0.000000,  4.999933 )     0.93713903
  WF centre and spread    2  (  1.233653,  0.712250,  4.999933 )     0.93713887
  Sum of centres and spreads (  1.233653,  0.712250,  9.999865 )     1.87427790
 
     50    -0.933E-14     0.0000009031        1.8742780584       0.83  <-- CONV
        O_D=      0.0099001 O_OD=      0.0029655 O_TOT=      1.8742781 <-- SPRD
 Delta: O_D= -0.3263015E-14 O_OD= -0.6080206E-14 O_TOT= -0.9325873E-14 <-- DLTA
 ------------------------------------------------------------------------------
 Cycle:    100
  LINE --> Iteration                     :         100
  LINE --> Parabolic line search unstable: using trial step
  LINE --> Spread at initial point       :   1.87427805843607     
  LINE --> Spread at trial step          :   1.87427805843606     
  LINE --> Slope along search direction  : -6.221853590291713E-015
  LINE --> ||SD gradient||^2             :  3.605805664518430E-013
  LINE --> Trial step length             :   2.00000000000000     
  LINE --> CG coefficient                :  0.998559335679337     
  WF centre and spread    1  ( -0.000000, -0.000000,  4.999933 )     0.93713903
  WF centre and spread    2  (  1.233653,  0.712250,  4.999933 )     0.93713887
  Sum of centres and spreads (  1.233653,  0.712250,  9.999865 )     1.87427790
 
    100    -0.122E-13     0.0000006005        1.8742780584       0.87  <-- CONV
        O_D=      0.0099001 O_OD=      0.0029655 O_TOT=      1.8742781 <-- SPRD
 Delta: O_D= -0.1491862E-15 O_OD= -0.1224455E-13 O_TOT= -0.1221245E-13 <-- DLTA
 ------------------------------------------------------------------------------

 Writing checkpoint file grafenowan.chk... done

 Cycle:    150
  LINE --> Iteration                     :         150
  LINE --> Parabolic line search unstable: using trial step
  LINE --> Spread at initial point       :   1.87427805843538     
  LINE --> Spread at trial step          :   1.87427805843536     
  LINE --> Slope along search direction  : -9.262344315569609E-015
  LINE --> ||SD gradient||^2             :  3.224796652241646E-013
  LINE --> Trial step length             :   2.00000000000000     
  LINE --> CG coefficient                :  0.997517841693305     
  WF centre and spread    1  ( -0.000000, -0.000000,  4.999933 )     0.93713903
  WF centre and spread    2  (  1.233653,  0.712250,  4.999933 )     0.93713887
  Sum of centres and spreads (  1.233653,  0.712250,  9.999865 )     1.87427790
 
    150    -0.184E-13     0.0000005679        1.8742780584       0.91  <-- CONV
        O_D=      0.0099001 O_OD=      0.0029655 O_TOT=      1.8742781 <-- SPRD
 Delta: O_D= -0.2376571E-15 O_OD= -0.1829873E-13 O_TOT= -0.1842970E-13 <-- DLTA
 ------------------------------------------------------------------------------
 Cycle:    200
  LINE --> Iteration                     :         200
  LINE --> Parabolic line search unstable: using trial step
  LINE --> Spread at initial point       :   1.87427805843475     
  LINE --> Spread at trial step          :   1.87427805843475     
  LINE --> Slope along search direction  : -1.660746866182437E-015
  LINE --> ||SD gradient||^2             :  2.885661697212727E-013
  LINE --> Trial step length             :   2.00000000000000     
  LINE --> CG coefficient                :  0.000000000000000E+000
  WF centre and spread    1  ( -0.000000, -0.000000,  4.999933 )     0.93713903
  WF centre and spread    2  (  1.233653,  0.712250,  4.999933 )     0.93713887
  Sum of centres and spreads (  1.233653,  0.712250,  9.999865 )     1.87427790
 
    200    -0.333E-14     0.0000005372        1.8742780584       0.95  <-- CONV
        O_D=      0.0099001 O_OD=      0.0029655 O_TOT=      1.8742781 <-- SPRD
 Delta: O_D= -0.5204170E-16 O_OD= -0.3286434E-14 O_TOT= -0.3330669E-14 <-- DLTA
 ------------------------------------------------------------------------------

 Writing checkpoint file grafenowan.chk... done

 Cycle:    250
  LINE --> Iteration                     :         250
  LINE --> Parabolic line search unstable: using trial step
  LINE --> Spread at initial point       :   1.87427805843422     
  LINE --> Spread at trial step          :   1.87427805843421     
  LINE --> Slope along search direction  : -4.478252412073023E-015
  LINE --> ||SD gradient||^2             :  2.595099901651048E-013
  LINE --> Trial step length             :   2.00000000000000     
  LINE --> CG coefficient                :  0.998758333879778     
  WF centre and spread    1  ( -0.000000, -0.000000,  4.999933 )     0.93713903
  WF centre and spread    2  (  1.233653,  0.712250,  4.999933 )     0.93713887
  Sum of centres and spreads (  1.233653,  0.712250,  9.999865 )     1.87427790
 
    250    -0.888E-14     0.0000005094        1.8742780584       0.99  <-- CONV
        O_D=      0.0099001 O_OD=      0.0029655 O_TOT=      1.8742781 <-- SPRD
 Delta: O_D= -0.1092876E-15 O_OD= -0.8848824E-14 O_TOT= -0.8881784E-14 <-- DLTA
 ------------------------------------------------------------------------------
 Cycle:    300
  LINE --> Iteration                     :         300
  LINE --> Parabolic line search unstable: using trial step
  LINE --> Spread at initial point       :   1.87427805843372     
  LINE --> Spread at trial step          :   1.87427805843371     
  LINE --> Slope along search direction  : -6.686684482839538E-015
  LINE --> ||SD gradient||^2             :  2.328045555384602E-013
  LINE --> Trial step length             :   2.00000000000000     
  LINE --> CG coefficient                :  0.997520081399811     
  WF centre and spread    1  ( -0.000000, -0.000000,  4.999933 )     0.93713903
  WF centre and spread    2  (  1.233653,  0.712250,  4.999933 )     0.93713887
  Sum of centres and spreads (  1.233653,  0.712250,  9.999865 )     1.87427790
 
    300    -0.133E-13     0.0000004825        1.8742780584       1.03  <-- CONV
        O_D=      0.0099001 O_OD=      0.0029655 O_TOT=      1.8742781 <-- SPRD
 Delta: O_D= -0.1335737E-15 O_OD= -0.1321122E-13 O_TOT= -0.1332268E-13 <-- DLTA
 ------------------------------------------------------------------------------

 Writing checkpoint file grafenowan.chk... done

 Cycle:    350
  LINE --> Iteration                     :         350
  LINE --> Parabolic line search unstable: using trial step
  LINE --> Spread at initial point       :   1.87427805843327     
  LINE --> Spread at trial step          :   1.87427805843327     
  LINE --> Slope along search direction  : -1.198996527627209E-015
  LINE --> ||SD gradient||^2             :  2.083338782880366E-013
  LINE --> Trial step length             :   2.00000000000000     
  LINE --> CG coefficient                :  0.000000000000000E+000
  WF centre and spread    1  ( -0.000000, -0.000000,  4.999933 )     0.93713903
  WF centre and spread    2  (  1.233653,  0.712250,  4.999933 )     0.93713887
  Sum of centres and spreads (  1.233653,  0.712250,  9.999865 )     1.87427790
 
    350    -0.222E-14     0.0000004564        1.8742780584       1.08  <-- CONV
        O_D=      0.0099001 O_OD=      0.0029655 O_TOT=      1.8742781 <-- SPRD
 Delta: O_D= -0.3295975E-16 O_OD= -0.2371801E-14 O_TOT= -0.2220446E-14 <-- DLTA
 ------------------------------------------------------------------------------
 Cycle:    400
  LINE --> Iteration                     :         400
  LINE --> Parabolic line search unstable: using trial step
  LINE --> Spread at initial point       :   1.87427805843288     
  LINE --> Spread at trial step          :   1.87427805843287     
  LINE --> Slope along search direction  : -3.233257248945152E-015
  LINE --> ||SD gradient||^2             :  1.873638052634314E-013
  LINE --> Trial step length             :   2.00000000000000     
  LINE --> CG coefficient                :  0.998758744977201     
  WF centre and spread    1  ( -0.000000, -0.000000,  4.999933 )     0.93713903
  WF centre and spread    2  (  1.233653,  0.712250,  4.999933 )     0.93713887
  Sum of centres and spreads (  1.233653,  0.712250,  9.999865 )     1.87427790
 
    400    -0.644E-14     0.0000004329        1.8742780584       1.12  <-- CONV
        O_D=      0.0099001 O_OD=      0.0029655 O_TOT=      1.8742781 <-- SPRD
 Delta: O_D= -0.9194034E-16 O_OD= -0.6385951E-14 O_TOT= -0.6439294E-14 <-- DLTA
 ------------------------------------------------------------------------------

 Writing checkpoint file grafenowan.chk... done

 Cycle:    450
  LINE --> Iteration                     :         450
  LINE --> Parabolic line search unstable: using trial step
  LINE --> Spread at initial point       :   1.87427805843252     
  LINE --> Spread at trial step          :   1.87427805843251     
  LINE --> Slope along search direction  : -4.827882054856938E-015
  LINE --> ||SD gradient||^2             :  1.680881433325408E-013
  LINE --> Trial step length             :   2.00000000000000     
  LINE --> CG coefficient                :  0.997520736784250     
  WF centre and spread    1  ( -0.000000, -0.000000,  4.999933 )     0.93713903
  WF centre and spread    2  (  1.233653,  0.712250,  4.999933 )     0.93713887
  Sum of centres and spreads (  1.233653,  0.712250,  9.999865 )     1.87427790
 
    450    -0.977E-14     0.0000004100        1.8742780584       1.16  <-- CONV
        O_D=      0.0099001 O_OD=      0.0029655 O_TOT=      1.8742781 <-- SPRD
 Delta: O_D= -0.1023487E-15 O_OD= -0.9547484E-14 O_TOT= -0.9769963E-14 <-- DLTA
 ------------------------------------------------------------------------------
 Cycle:    500
  LINE --> Iteration                     :         500
  LINE --> Parabolic line search unstable: using trial step
  LINE --> Spread at initial point       :   1.87427805843219     
  LINE --> Spread at trial step          :   1.87427805843219     
  LINE --> Slope along search direction  : -8.657149034274312E-016
  LINE --> ||SD gradient||^2             :  1.504239079655337E-013
  LINE --> Trial step length             :   2.00000000000000     
  LINE --> CG coefficient                :  0.000000000000000E+000
  WF centre and spread    1  ( -0.000000, -0.000000,  4.999933 )     0.93713903
  WF centre and spread    2  (  1.233653,  0.712250,  4.999933 )     0.93713887
  Sum of centres and spreads (  1.233653,  0.712250,  9.999865 )     1.87427790
 
    500    -0.178E-14     0.0000003878        1.8742780584       1.20  <-- CONV
        O_D=      0.0099001 O_OD=      0.0029655 O_TOT=      1.8742781 <-- SPRD
 Delta: O_D=  0.1040834E-16 O_OD= -0.1719978E-14 O_TOT= -0.1776357E-14 <-- DLTA
 ------------------------------------------------------------------------------

 Writing checkpoint file grafenowan.chk... done

 Final State
  WF centre and spread    1  ( -0.000000, -0.000000,  4.999933 )     0.93713903
  WF centre and spread    2  (  1.233653,  0.712250,  4.999933 )     0.93713887
  Sum of centres and spreads (  1.233653,  0.712250,  9.999865 )     1.87427790
 
         Spreads (Ang^2)       Omega I      =     1.861412395
        ================       Omega D      =     0.009900133
                               Omega OD     =     0.002965531
    Final Spread (Ang^2)       Omega Total  =     1.874278058
 ------------------------------------------------------------------------------
 Final centres (translated to home cell for writing xyz file)
  WF centre    1  ( -0.000000, -0.000000,  4.999933 )
  WF centre    2  (  1.233653,  0.712250,  4.999933 )
 ------------------------------------------------------------------------------
 

 Wannier centres written to file grafenowan_centres.xyz
  
  Omega Invariant:   1-s^2 =     1.861412395 (Ang^2)
                   -2log s =     1.898854757 (Ang^2)
                    acos^2 =     1.886223952 (Ang^2)
 Time for wannierise            0.424 (sec)

 Writing checkpoint file grafenowan.chk... done

 *---------------------------------------------------------------------------*
 |                               PLOTTING                                    |
 *---------------------------------------------------------------------------*
 
  147 lattice points in Wigner-Seitz supercell:

      vector  -7   2   0   degeneracy:  1
      vector  -7   3   0   degeneracy:  1
      vector  -7   4   0   degeneracy:  1
      vector  -6   0   0   degeneracy:  2
      vector  -6   1   0   degeneracy:  1
      vector  -6   2   0   degeneracy:  1
      vector  -6   3   0   degeneracy:  1
      vector  -6   4   0   degeneracy:  1
      vector  -6   5   0   degeneracy:  1
      vector  -6   6   0   degeneracy:  2
      vector  -5  -1   0   degeneracy:  1
      vector  -5   0   0   degeneracy:  1
      vector  -5   1   0   degeneracy:  1
      vector  -5   2   0   degeneracy:  1
      vector  -5   3   0   degeneracy:  1
      vector  -5   4   0   degeneracy:  1
      vector  -5   5   0   degeneracy:  1
      vector  -5   6   0   degeneracy:  1
      vector  -5   7   0   degeneracy:  1
      vector  -4  -3   0   degeneracy:  1
      vector  -4  -2   0   degeneracy:  1
      vector  -4  -1   0   degeneracy:  1
      vector  -4   0   0   degeneracy:  1
      vector  -4   1   0   degeneracy:  1
      vector  -4   2   0   degeneracy:  1
      vector  -4   3   0   degeneracy:  1
      vector  -4   4   0   degeneracy:  1
      vector  -4   5   0   degeneracy:  1
      vector  -4   6   0   degeneracy:  1
      vector  -4   7   0   degeneracy:  1
      vector  -4   8   0   degeneracy:  1
      vector  -3  -4   0   degeneracy:  1
      vector  -3  -3   0   degeneracy:  1
      vector  -3  -2   0   degeneracy:  1
      vector  -3  -1   0   degeneracy:  1
      vector  -3   0   0   degeneracy:  1
      vector  -3   1   0   degeneracy:  1
      vector  -3   2   0   degeneracy:  1
      vector  -3   3   0   degeneracy:  1
      vector  -3   4   0   degeneracy:  1
      vector  -3   5   0   degeneracy:  1
      vector  -3   6   0   degeneracy:  1
      vector  -3   7   0   degeneracy:  1
      vector  -2  -4   0   degeneracy:  1
      vector  -2  -3   0   degeneracy:  1
      vector  -2  -2   0   degeneracy:  1
      vector  -2  -1   0   degeneracy:  1
      vector  -2   0   0   degeneracy:  1
      vector  -2   1   0   degeneracy:  1
      vector  -2   2   0   degeneracy:  1
      vector  -2   3   0   degeneracy:  1
      vector  -2   4   0   degeneracy:  1
      vector  -2   5   0   degeneracy:  1
      vector  -2   6   0   degeneracy:  1
      vector  -2   7   0   degeneracy:  1
      vector  -1  -5   0   degeneracy:  1
      vector  -1  -4   0   degeneracy:  1
      vector  -1  -3   0   degeneracy:  1
      vector  -1  -2   0   degeneracy:  1
      vector  -1  -1   0   degeneracy:  1
      vector  -1   0   0   degeneracy:  1
      vector  -1   1   0   degeneracy:  1
      vector  -1   2   0   degeneracy:  1
      vector  -1   3   0   degeneracy:  1
      vector  -1   4   0   degeneracy:  1
      vector  -1   5   0   degeneracy:  1
      vector  -1   6   0   degeneracy:  1
      vector   0  -6   0   degeneracy:  2
      vector   0  -5   0   degeneracy:  1
      vector   0  -4   0   degeneracy:  1
      vector   0  -3   0   degeneracy:  1
      vector   0  -2   0   degeneracy:  1
      vector   0  -1   0   degeneracy:  1
      vector   0   0   0   degeneracy:  1
      vector   0   1   0   degeneracy:  1
      vector   0   2   0   degeneracy:  1
      vector   0   3   0   degeneracy:  1
      vector   0   4   0   degeneracy:  1
      vector   0   5   0   degeneracy:  1
      vector   0   6   0   degeneracy:  2
      vector   1  -6   0   degeneracy:  1
      vector   1  -5   0   degeneracy:  1
      vector   1  -4   0   degeneracy:  1
      vector   1  -3   0   degeneracy:  1
      vector   1  -2   0   degeneracy:  1
      vector   1  -1   0   degeneracy:  1
      vector   1   0   0   degeneracy:  1
      vector   1   1   0   degeneracy:  1
      vector   1   2   0   degeneracy:  1
      vector   1   3   0   degeneracy:  1
      vector   1   4   0   degeneracy:  1
      vector   1   5   0   degeneracy:  1
      vector   2  -7   0   degeneracy:  1
      vector   2  -6   0   degeneracy:  1
      vector   2  -5   0   degeneracy:  1
      vector   2  -4   0   degeneracy:  1
      vector   2  -3   0   degeneracy:  1
      vector   2  -2   0   degeneracy:  1
      vector   2  -1   0   degeneracy:  1
      vector   2   0   0   degeneracy:  1
      vector   2   1   0   degeneracy:  1
      vector   2   2   0   degeneracy:  1
      vector   2   3   0   degeneracy:  1
      vector   2   4   0   degeneracy:  1
      vector   3  -7   0   degeneracy:  1
      vector   3  -6   0   degeneracy:  1
      vector   3  -5   0   degeneracy:  1
      vector   3  -4   0   degeneracy:  1
      vector   3  -3   0   degeneracy:  1
      vector   3  -2   0   degeneracy:  1
      vector   3  -1   0   degeneracy:  1
      vector   3   0   0   degeneracy:  1
      vector   3   1   0   degeneracy:  1
      vector   3   2   0   degeneracy:  1
      vector   3   3   0   degeneracy:  1
      vector   3   4   0   degeneracy:  1
      vector   4  -8   0   degeneracy:  1
      vector   4  -7   0   degeneracy:  1
      vector   4  -6   0   degeneracy:  1
      vector   4  -5   0   degeneracy:  1
      vector   4  -4   0   degeneracy:  1
      vector   4  -3   0   degeneracy:  1
      vector   4  -2   0   degeneracy:  1
      vector   4  -1   0   degeneracy:  1
      vector   4   0   0   degeneracy:  1
      vector   4   1   0   degeneracy:  1
      vector   4   2   0   degeneracy:  1
      vector   4   3   0   degeneracy:  1
      vector   5  -7   0   degeneracy:  1
      vector   5  -6   0   degeneracy:  1
      vector   5  -5   0   degeneracy:  1
      vector   5  -4   0   degeneracy:  1
      vector   5  -3   0   degeneracy:  1
      vector   5  -2   0   degeneracy:  1
      vector   5  -1   0   degeneracy:  1
      vector   5   0   0   degeneracy:  1
      vector   5   1   0   degeneracy:  1
      vector   6  -6   0   degeneracy:  2
      vector   6  -5   0   degeneracy:  1
      vector   6  -4   0   degeneracy:  1
      vector   6  -3   0   degeneracy:  1
      vector   6  -2   0   degeneracy:  1
      vector   6  -1   0   degeneracy:  1
      vector   6   0   0   degeneracy:  2
      vector   7  -4   0   degeneracy:  1
      vector   7  -3   0   degeneracy:  1
      vector   7  -2   0   degeneracy:  1
  tot =      144.000
  mp_grid product =          144
 
 Calculating interpolated band-structure
 
 Time to calculate interpolated band structure       0.012 (sec)
 
      Wannier Function Num:    1       Maximum Im/Re Ratio =    0.000004
      Wannier Function Num:    2       Maximum Im/Re Ratio =    0.000004
  
 Time for plotting             79.742 (sec)
 Total Execution Time          81.239 (sec)

 *===========================================================================*
 |                             TIMING INFORMATION                            |
 *===========================================================================*
 |    Tag                                                Ncalls      Time (s)|
 |---------------------------------------------------------------------------|
 |kmesh: get                                        :         1         0.056|
 |overlap: allocate                                 :         1         0.000|
 |overlap: read                                     :         1         0.215|
 |dis: main                                         :         1         0.786|
 |wann: main                                        :         1         0.424|
 |plot: main                                        :         1        79.742|
 *---------------------------------------------------------------------------*
 
 All done: wannier90 exiting
