File written on 26Mar2025 at 00:29:54 

calc_only_A  :  F

begin real_lattice
   2.4673068   0.0000000   0.0000000
   1.2336534   2.1367504   0.0000000
   0.0000000   0.0000000  19.9997300
end real_lattice

begin recip_lattice
   2.5465764  -1.4702666   0.0000000
   0.0000000   2.9405332   0.0000000
   0.0000000   0.0000000   0.3141635
end recip_lattice

begin kpoints
   144
    0.00000000    0.00000000    0.00000000
    0.00000000    0.08333333    0.00000000
    0.00000000    0.16666667    0.00000000
    0.00000000    0.25000000    0.00000000
    0.00000000    0.33333333    0.00000000
    0.00000000    0.41666667    0.00000000
    0.00000000    0.50000000    0.00000000
    0.00000000    0.58333333    0.00000000
    0.00000000    0.66666667    0.00000000
    0.00000000    0.75000000    0.00000000
    0.00000000    0.83333333    0.00000000
    0.00000000    0.91666667    0.00000000
    0.08333333    0.00000000    0.00000000
    0.08333333    0.08333333    0.00000000
    0.08333333    0.16666667    0.00000000
    0.08333333    0.25000000    0.00000000
    0.08333333    0.33333333    0.00000000
    0.08333333    0.41666667    0.00000000
    0.08333333    0.50000000    0.00000000
    0.08333333    0.58333333    0.00000000
    0.08333333    0.66666667    0.00000000
    0.08333333    0.75000000    0.00000000
    0.08333333    0.83333333    0.00000000
    0.08333333    0.91666667    0.00000000
    0.16666667    0.00000000    0.00000000
    0.16666667    0.08333333    0.00000000
    0.16666667    0.16666667    0.00000000
    0.16666667    0.25000000    0.00000000
    0.16666667    0.33333333    0.00000000
    0.16666667    0.41666667    0.00000000
    0.16666667    0.50000000    0.00000000
    0.16666667    0.58333333    0.00000000
    0.16666667    0.66666667    0.00000000
    0.16666667    0.75000000    0.00000000
    0.16666667    0.83333333    0.00000000
    0.16666667    0.91666667    0.00000000
    0.25000000    0.00000000    0.00000000
    0.25000000    0.08333333    0.00000000
    0.25000000    0.16666667    0.00000000
    0.25000000    0.25000000    0.00000000
    0.25000000    0.33333333    0.00000000
    0.25000000    0.41666667    0.00000000
    0.25000000    0.50000000    0.00000000
    0.25000000    0.58333333    0.00000000
    0.25000000    0.66666667    0.00000000
    0.25000000    0.75000000    0.00000000
    0.25000000    0.83333333    0.00000000
    0.25000000    0.91666667    0.00000000
    0.33333333    0.00000000    0.00000000
    0.33333333    0.08333333    0.00000000
    0.33333333    0.16666667    0.00000000
    0.33333333    0.25000000    0.00000000
    0.33333333    0.33333333    0.00000000
    0.33333333    0.41666667    0.00000000
    0.33333333    0.50000000    0.00000000
    0.33333333    0.58333333    0.00000000
    0.33333333    0.66666667    0.00000000
    0.33333333    0.75000000    0.00000000
    0.33333333    0.83333333    0.00000000
    0.33333333    0.91666667    0.00000000
    0.41666667    0.00000000    0.00000000
    0.41666667    0.08333333    0.00000000
    0.41666667    0.16666667    0.00000000
    0.41666667    0.25000000    0.00000000
    0.41666667    0.33333333    0.00000000
    0.41666667    0.41666667    0.00000000
    0.41666667    0.50000000    0.00000000
    0.41666667    0.58333333    0.00000000
    0.41666667    0.66666667    0.00000000
    0.41666667    0.75000000    0.00000000
    0.41666667    0.83333333    0.00000000
    0.41666667    0.91666667    0.00000000
    0.50000000    0.00000000    0.00000000
    0.50000000    0.08333333    0.00000000
    0.50000000    0.16666667    0.00000000
    0.50000000    0.25000000    0.00000000
    0.50000000    0.33333333    0.00000000
    0.50000000    0.41666667    0.00000000
    0.50000000    0.50000000    0.00000000
    0.50000000    0.58333333    0.00000000
    0.50000000    0.66666667    0.00000000
    0.50000000    0.75000000    0.00000000
    0.50000000    0.83333333    0.00000000
    0.50000000    0.91666667    0.00000000
    0.58333333    0.00000000    0.00000000
    0.58333333    0.08333333    0.00000000
    0.58333333    0.16666667    0.00000000
    0.58333333    0.25000000    0.00000000
    0.58333333    0.33333333    0.00000000
    0.58333333    0.41666667    0.00000000
    0.58333333    0.50000000    0.00000000
    0.58333333    0.58333333    0.00000000
    0.58333333    0.66666667    0.00000000
    0.58333333    0.75000000    0.00000000
    0.58333333    0.83333333    0.00000000
    0.58333333    0.91666667    0.00000000
    0.66666667    0.00000000    0.00000000
    0.66666667    0.08333333    0.00000000
    0.66666667    0.16666667    0.00000000
    0.66666667    0.25000000    0.00000000
    0.66666667    0.33333333    0.00000000
    0.66666667    0.41666667    0.00000000
    0.66666667    0.50000000    0.00000000
    0.66666667    0.58333333    0.00000000
    0.66666667    0.66666667    0.00000000
    0.66666667    0.75000000    0.00000000
    0.66666667    0.83333333    0.00000000
    0.66666667    0.91666667    0.00000000
    0.75000000    0.00000000    0.00000000
    0.75000000    0.08333333    0.00000000
    0.75000000    0.16666667    0.00000000
    0.75000000    0.25000000    0.00000000
    0.75000000    0.33333333    0.00000000
    0.75000000    0.41666667    0.00000000
    0.75000000    0.50000000    0.00000000
    0.75000000    0.58333333    0.00000000
    0.75000000    0.66666667    0.00000000
    0.75000000    0.75000000    0.00000000
    0.75000000    0.83333333    0.00000000
    0.75000000    0.91666667    0.00000000
    0.83333333    0.00000000    0.00000000
    0.83333333    0.08333333    0.00000000
    0.83333333    0.16666667    0.00000000
    0.83333333    0.25000000    0.00000000
    0.83333333    0.33333333    0.00000000
    0.83333333    0.41666667    0.00000000
    0.83333333    0.50000000    0.00000000
    0.83333333    0.58333333    0.00000000
    0.83333333    0.66666667    0.00000000
    0.83333333    0.75000000    0.00000000
    0.83333333    0.83333333    0.00000000
    0.83333333    0.91666667    0.00000000
    0.91666667    0.00000000    0.00000000
    0.91666667    0.08333333    0.00000000
    0.91666667    0.16666667    0.00000000
    0.91666667    0.25000000    0.00000000
    0.91666667    0.33333333    0.00000000
    0.91666667    0.41666667    0.00000000
    0.91666667    0.50000000    0.00000000
    0.91666667    0.58333333    0.00000000
    0.91666667    0.66666667    0.00000000
    0.91666667    0.75000000    0.00000000
    0.91666667    0.83333333    0.00000000
    0.91666667    0.91666667    0.00000000
end kpoints

begin projections
     2
   0.00000    0.00000    0.25000     1  1  1
    0.0000000  0.0000000  1.0000000   1.0000000  0.0000000  0.0000000    1.00
   0.33333    0.33333    0.25000     1  1  1
    0.0000000  0.0000000  1.0000000   1.0000000  0.0000000  0.0000000    1.00
end projections

begin nnkpts
   8
     1     2      0   0   0
     1    13      0   0   0
     1    14      0   0   0
     1    12      0  -1   0
     1   133     -1   0   0
     1   144     -1  -1   0
     1     1      0   0   1
     1     1      0   0  -1
     2     1      0   0   0
     2     3      0   0   0
     2    14      0   0   0
     2    15      0   0   0
     2   133     -1   0   0
     2   134     -1   0   0
     2     2      0   0   1
     2     2      0   0  -1
     3     2      0   0   0
     3     4      0   0   0
     3    15      0   0   0
     3    16      0   0   0
     3   134     -1   0   0
     3   135     -1   0   0
     3     3      0   0   1
     3     3      0   0  -1
     4     3      0   0   0
     4     5      0   0   0
     4    16      0   0   0
     4    17      0   0   0
     4   135     -1   0   0
     4   136     -1   0   0
     4     4      0   0   1
     4     4      0   0  -1
     5     4      0   0   0
     5     6      0   0   0
     5    17      0   0   0
     5    18      0   0   0
     5   136     -1   0   0
     5   137     -1   0   0
     5     5      0   0   1
     5     5      0   0  -1
     6     5      0   0   0
     6     7      0   0   0
     6    18      0   0   0
     6    19      0   0   0
     6   137     -1   0   0
     6   138     -1   0   0
     6     6      0   0   1
     6     6      0   0  -1
     7     6      0   0   0
     7     8      0   0   0
     7    19      0   0   0
     7    20      0   0   0
     7   138     -1   0   0
     7   139     -1   0   0
     7     7      0   0   1
     7     7      0   0  -1
     8     7      0   0   0
     8     9      0   0   0
     8    20      0   0   0
     8    21      0   0   0
     8   139     -1   0   0
     8   140     -1   0   0
     8     8      0   0   1
     8     8      0   0  -1
     9     8      0   0   0
     9    10      0   0   0
     9    21      0   0   0
     9    22      0   0   0
     9   140     -1   0   0
     9   141     -1   0   0
     9     9      0   0   1
     9     9      0   0  -1
    10     9      0   0   0
    10    11      0   0   0
    10    22      0   0   0
    10    23      0   0   0
    10   141     -1   0   0
    10   142     -1   0   0
    10    10      0   0   1
    10    10      0   0  -1
    11    10      0   0   0
    11    12      0   0   0
    11    23      0   0   0
    11    24      0   0   0
    11   142     -1   0   0
    11   143     -1   0   0
    11    11      0   0   1
    11    11      0   0  -1
    12    11      0   0   0
    12    24      0   0   0
    12     1      0   1   0
    12    13      0   1   0
    12   143     -1   0   0
    12   144     -1   0   0
    12    12      0   0   1
    12    12      0   0  -1
    13     1      0   0   0
    13    14      0   0   0
    13    25      0   0   0
    13    26      0   0   0
    13    12      0  -1   0
    13    24      0  -1   0
    13    13      0   0   1
    13    13      0   0  -1
    14     1      0   0   0
    14     2      0   0   0
    14    13      0   0   0
    14    15      0   0   0
    14    26      0   0   0
    14    27      0   0   0
    14    14      0   0   1
    14    14      0   0  -1
    15     2      0   0   0
    15     3      0   0   0
    15    14      0   0   0
    15    16      0   0   0
    15    27      0   0   0
    15    28      0   0   0
    15    15      0   0   1
    15    15      0   0  -1
    16     3      0   0   0
    16     4      0   0   0
    16    15      0   0   0
    16    17      0   0   0
    16    28      0   0   0
    16    29      0   0   0
    16    16      0   0   1
    16    16      0   0  -1
    17     4      0   0   0
    17     5      0   0   0
    17    16      0   0   0
    17    18      0   0   0
    17    29      0   0   0
    17    30      0   0   0
    17    17      0   0   1
    17    17      0   0  -1
    18     5      0   0   0
    18     6      0   0   0
    18    17      0   0   0
    18    19      0   0   0
    18    30      0   0   0
    18    31      0   0   0
    18    18      0   0   1
    18    18      0   0  -1
    19     6      0   0   0
    19     7      0   0   0
    19    18      0   0   0
    19    20      0   0   0
    19    31      0   0   0
    19    32      0   0   0
    19    19      0   0   1
    19    19      0   0  -1
    20     7      0   0   0
    20     8      0   0   0
    20    19      0   0   0
    20    21      0   0   0
    20    32      0   0   0
    20    33      0   0   0
    20    20      0   0   1
    20    20      0   0  -1
    21     8      0   0   0
    21     9      0   0   0
    21    20      0   0   0
    21    22      0   0   0
    21    33      0   0   0
    21    34      0   0   0
    21    21      0   0   1
    21    21      0   0  -1
    22     9      0   0   0
    22    10      0   0   0
    22    21      0   0   0
    22    23      0   0   0
    22    34      0   0   0
    22    35      0   0   0
    22    22      0   0   1
    22    22      0   0  -1
    23    10      0   0   0
    23    11      0   0   0
    23    22      0   0   0
    23    24      0   0   0
    23    35      0   0   0
    23    36      0   0   0
    23    23      0   0   1
    23    23      0   0  -1
    24    11      0   0   0
    24    12      0   0   0
    24    23      0   0   0
    24    36      0   0   0
    24    13      0   1   0
    24    25      0   1   0
    24    24      0   0   1
    24    24      0   0  -1
    25    13      0   0   0
    25    26      0   0   0
    25    37      0   0   0
    25    38      0   0   0
    25    24      0  -1   0
    25    36      0  -1   0
    25    25      0   0   1
    25    25      0   0  -1
    26    13      0   0   0
    26    14      0   0   0
    26    25      0   0   0
    26    27      0   0   0
    26    38      0   0   0
    26    39      0   0   0
    26    26      0   0   1
    26    26      0   0  -1
    27    14      0   0   0
    27    15      0   0   0
    27    26      0   0   0
    27    28      0   0   0
    27    39      0   0   0
    27    40      0   0   0
    27    27      0   0   1
    27    27      0   0  -1
    28    15      0   0   0
    28    16      0   0   0
    28    27      0   0   0
    28    29      0   0   0
    28    40      0   0   0
    28    41      0   0   0
    28    28      0   0   1
    28    28      0   0  -1
    29    16      0   0   0
    29    17      0   0   0
    29    28      0   0   0
    29    30      0   0   0
    29    41      0   0   0
    29    42      0   0   0
    29    29      0   0   1
    29    29      0   0  -1
    30    17      0   0   0
    30    18      0   0   0
    30    29      0   0   0
    30    31      0   0   0
    30    42      0   0   0
    30    43      0   0   0
    30    30      0   0   1
    30    30      0   0  -1
    31    18      0   0   0
    31    19      0   0   0
    31    30      0   0   0
    31    32      0   0   0
    31    43      0   0   0
    31    44      0   0   0
    31    31      0   0   1
    31    31      0   0  -1
    32    19      0   0   0
    32    20      0   0   0
    32    31      0   0   0
    32    33      0   0   0
    32    44      0   0   0
    32    45      0   0   0
    32    32      0   0   1
    32    32      0   0  -1
    33    20      0   0   0
    33    21      0   0   0
    33    32      0   0   0
    33    34      0   0   0
    33    45      0   0   0
    33    46      0   0   0
    33    33      0   0   1
    33    33      0   0  -1
    34    21      0   0   0
    34    22      0   0   0
    34    33      0   0   0
    34    35      0   0   0
    34    46      0   0   0
    34    47      0   0   0
    34    34      0   0   1
    34    34      0   0  -1
    35    22      0   0   0
    35    23      0   0   0
    35    34      0   0   0
    35    36      0   0   0
    35    47      0   0   0
    35    48      0   0   0
    35    35      0   0   1
    35    35      0   0  -1
    36    23      0   0   0
    36    24      0   0   0
    36    35      0   0   0
    36    48      0   0   0
    36    25      0   1   0
    36    37      0   1   0
    36    36      0   0   1
    36    36      0   0  -1
    37    25      0   0   0
    37    38      0   0   0
    37    49      0   0   0
    37    50      0   0   0
    37    36      0  -1   0
    37    48      0  -1   0
    37    37      0   0   1
    37    37      0   0  -1
    38    25      0   0   0
    38    26      0   0   0
    38    37      0   0   0
    38    39      0   0   0
    38    50      0   0   0
    38    51      0   0   0
    38    38      0   0   1
    38    38      0   0  -1
    39    26      0   0   0
    39    27      0   0   0
    39    38      0   0   0
    39    40      0   0   0
    39    51      0   0   0
    39    52      0   0   0
    39    39      0   0   1
    39    39      0   0  -1
    40    27      0   0   0
    40    28      0   0   0
    40    39      0   0   0
    40    41      0   0   0
    40    52      0   0   0
    40    53      0   0   0
    40    40      0   0   1
    40    40      0   0  -1
    41    28      0   0   0
    41    29      0   0   0
    41    40      0   0   0
    41    42      0   0   0
    41    53      0   0   0
    41    54      0   0   0
    41    41      0   0   1
    41    41      0   0  -1
    42    29      0   0   0
    42    30      0   0   0
    42    41      0   0   0
    42    43      0   0   0
    42    54      0   0   0
    42    55      0   0   0
    42    42      0   0   1
    42    42      0   0  -1
    43    30      0   0   0
    43    31      0   0   0
    43    42      0   0   0
    43    44      0   0   0
    43    55      0   0   0
    43    56      0   0   0
    43    43      0   0   1
    43    43      0   0  -1
    44    31      0   0   0
    44    32      0   0   0
    44    43      0   0   0
    44    45      0   0   0
    44    56      0   0   0
    44    57      0   0   0
    44    44      0   0   1
    44    44      0   0  -1
    45    32      0   0   0
    45    33      0   0   0
    45    44      0   0   0
    45    46      0   0   0
    45    57      0   0   0
    45    58      0   0   0
    45    45      0   0   1
    45    45      0   0  -1
    46    33      0   0   0
    46    34      0   0   0
    46    45      0   0   0
    46    47      0   0   0
    46    58      0   0   0
    46    59      0   0   0
    46    46      0   0   1
    46    46      0   0  -1
    47    34      0   0   0
    47    35      0   0   0
    47    46      0   0   0
    47    48      0   0   0
    47    59      0   0   0
    47    60      0   0   0
    47    47      0   0   1
    47    47      0   0  -1
    48    35      0   0   0
    48    36      0   0   0
    48    47      0   0   0
    48    60      0   0   0
    48    37      0   1   0
    48    49      0   1   0
    48    48      0   0   1
    48    48      0   0  -1
    49    37      0   0   0
    49    50      0   0   0
    49    61      0   0   0
    49    62      0   0   0
    49    48      0  -1   0
    49    60      0  -1   0
    49    49      0   0   1
    49    49      0   0  -1
    50    37      0   0   0
    50    38      0   0   0
    50    49      0   0   0
    50    51      0   0   0
    50    62      0   0   0
    50    63      0   0   0
    50    50      0   0   1
    50    50      0   0  -1
    51    38      0   0   0
    51    39      0   0   0
    51    50      0   0   0
    51    52      0   0   0
    51    63      0   0   0
    51    64      0   0   0
    51    51      0   0   1
    51    51      0   0  -1
    52    39      0   0   0
    52    40      0   0   0
    52    51      0   0   0
    52    53      0   0   0
    52    64      0   0   0
    52    65      0   0   0
    52    52      0   0   1
    52    52      0   0  -1
    53    40      0   0   0
    53    41      0   0   0
    53    52      0   0   0
    53    54      0   0   0
    53    65      0   0   0
    53    66      0   0   0
    53    53      0   0   1
    53    53      0   0  -1
    54    41      0   0   0
    54    42      0   0   0
    54    53      0   0   0
    54    55      0   0   0
    54    66      0   0   0
    54    67      0   0   0
    54    54      0   0   1
    54    54      0   0  -1
    55    42      0   0   0
    55    43      0   0   0
    55    54      0   0   0
    55    56      0   0   0
    55    67      0   0   0
    55    68      0   0   0
    55    55      0   0   1
    55    55      0   0  -1
    56    43      0   0   0
    56    44      0   0   0
    56    55      0   0   0
    56    57      0   0   0
    56    68      0   0   0
    56    69      0   0   0
    56    56      0   0   1
    56    56      0   0  -1
    57    44      0   0   0
    57    45      0   0   0
    57    56      0   0   0
    57    58      0   0   0
    57    69      0   0   0
    57    70      0   0   0
    57    57      0   0   1
    57    57      0   0  -1
    58    45      0   0   0
    58    46      0   0   0
    58    57      0   0   0
    58    59      0   0   0
    58    70      0   0   0
    58    71      0   0   0
    58    58      0   0   1
    58    58      0   0  -1
    59    46      0   0   0
    59    47      0   0   0
    59    58      0   0   0
    59    60      0   0   0
    59    71      0   0   0
    59    72      0   0   0
    59    59      0   0   1
    59    59      0   0  -1
    60    47      0   0   0
    60    48      0   0   0
    60    59      0   0   0
    60    72      0   0   0
    60    49      0   1   0
    60    61      0   1   0
    60    60      0   0   1
    60    60      0   0  -1
    61    49      0   0   0
    61    62      0   0   0
    61    73      0   0   0
    61    74      0   0   0
    61    60      0  -1   0
    61    72      0  -1   0
    61    61      0   0   1
    61    61      0   0  -1
    62    49      0   0   0
    62    50      0   0   0
    62    61      0   0   0
    62    63      0   0   0
    62    74      0   0   0
    62    75      0   0   0
    62    62      0   0   1
    62    62      0   0  -1
    63    50      0   0   0
    63    51      0   0   0
    63    62      0   0   0
    63    64      0   0   0
    63    75      0   0   0
    63    76      0   0   0
    63    63      0   0   1
    63    63      0   0  -1
    64    51      0   0   0
    64    52      0   0   0
    64    63      0   0   0
    64    65      0   0   0
    64    76      0   0   0
    64    77      0   0   0
    64    64      0   0   1
    64    64      0   0  -1
    65    52      0   0   0
    65    53      0   0   0
    65    64      0   0   0
    65    66      0   0   0
    65    77      0   0   0
    65    78      0   0   0
    65    65      0   0   1
    65    65      0   0  -1
    66    53      0   0   0
    66    54      0   0   0
    66    65      0   0   0
    66    67      0   0   0
    66    78      0   0   0
    66    79      0   0   0
    66    66      0   0   1
    66    66      0   0  -1
    67    54      0   0   0
    67    55      0   0   0
    67    66      0   0   0
    67    68      0   0   0
    67    79      0   0   0
    67    80      0   0   0
    67    67      0   0   1
    67    67      0   0  -1
    68    55      0   0   0
    68    56      0   0   0
    68    67      0   0   0
    68    69      0   0   0
    68    80      0   0   0
    68    81      0   0   0
    68    68      0   0   1
    68    68      0   0  -1
    69    56      0   0   0
    69    57      0   0   0
    69    68      0   0   0
    69    70      0   0   0
    69    81      0   0   0
    69    82      0   0   0
    69    69      0   0   1
    69    69      0   0  -1
    70    57      0   0   0
    70    58      0   0   0
    70    69      0   0   0
    70    71      0   0   0
    70    82      0   0   0
    70    83      0   0   0
    70    70      0   0   1
    70    70      0   0  -1
    71    58      0   0   0
    71    59      0   0   0
    71    70      0   0   0
    71    72      0   0   0
    71    83      0   0   0
    71    84      0   0   0
    71    71      0   0   1
    71    71      0   0  -1
    72    59      0   0   0
    72    60      0   0   0
    72    71      0   0   0
    72    84      0   0   0
    72    61      0   1   0
    72    73      0   1   0
    72    72      0   0   1
    72    72      0   0  -1
    73    61      0   0   0
    73    74      0   0   0
    73    85      0   0   0
    73    86      0   0   0
    73    72      0  -1   0
    73    84      0  -1   0
    73    73      0   0   1
    73    73      0   0  -1
    74    61      0   0   0
    74    62      0   0   0
    74    73      0   0   0
    74    75      0   0   0
    74    86      0   0   0
    74    87      0   0   0
    74    74      0   0   1
    74    74      0   0  -1
    75    62      0   0   0
    75    63      0   0   0
    75    74      0   0   0
    75    76      0   0   0
    75    87      0   0   0
    75    88      0   0   0
    75    75      0   0   1
    75    75      0   0  -1
    76    63      0   0   0
    76    64      0   0   0
    76    75      0   0   0
    76    77      0   0   0
    76    88      0   0   0
    76    89      0   0   0
    76    76      0   0   1
    76    76      0   0  -1
    77    64      0   0   0
    77    65      0   0   0
    77    76      0   0   0
    77    78      0   0   0
    77    89      0   0   0
    77    90      0   0   0
    77    77      0   0   1
    77    77      0   0  -1
    78    65      0   0   0
    78    66      0   0   0
    78    77      0   0   0
    78    79      0   0   0
    78    90      0   0   0
    78    91      0   0   0
    78    78      0   0   1
    78    78      0   0  -1
    79    66      0   0   0
    79    67      0   0   0
    79    78      0   0   0
    79    80      0   0   0
    79    91      0   0   0
    79    92      0   0   0
    79    79      0   0   1
    79    79      0   0  -1
    80    67      0   0   0
    80    68      0   0   0
    80    79      0   0   0
    80    81      0   0   0
    80    92      0   0   0
    80    93      0   0   0
    80    80      0   0   1
    80    80      0   0  -1
    81    68      0   0   0
    81    69      0   0   0
    81    80      0   0   0
    81    82      0   0   0
    81    93      0   0   0
    81    94      0   0   0
    81    81      0   0   1
    81    81      0   0  -1
    82    69      0   0   0
    82    70      0   0   0
    82    81      0   0   0
    82    83      0   0   0
    82    94      0   0   0
    82    95      0   0   0
    82    82      0   0   1
    82    82      0   0  -1
    83    70      0   0   0
    83    71      0   0   0
    83    82      0   0   0
    83    84      0   0   0
    83    95      0   0   0
    83    96      0   0   0
    83    83      0   0   1
    83    83      0   0  -1
    84    71      0   0   0
    84    72      0   0   0
    84    83      0   0   0
    84    96      0   0   0
    84    73      0   1   0
    84    85      0   1   0
    84    84      0   0   1
    84    84      0   0  -1
    85    73      0   0   0
    85    86      0   0   0
    85    97      0   0   0
    85    98      0   0   0
    85    84      0  -1   0
    85    96      0  -1   0
    85    85      0   0   1
    85    85      0   0  -1
    86    73      0   0   0
    86    74      0   0   0
    86    85      0   0   0
    86    87      0   0   0
    86    98      0   0   0
    86    99      0   0   0
    86    86      0   0   1
    86    86      0   0  -1
    87    74      0   0   0
    87    75      0   0   0
    87    86      0   0   0
    87    88      0   0   0
    87    99      0   0   0
    87   100      0   0   0
    87    87      0   0   1
    87    87      0   0  -1
    88    75      0   0   0
    88    76      0   0   0
    88    87      0   0   0
    88    89      0   0   0
    88   100      0   0   0
    88   101      0   0   0
    88    88      0   0   1
    88    88      0   0  -1
    89    76      0   0   0
    89    77      0   0   0
    89    88      0   0   0
    89    90      0   0   0
    89   101      0   0   0
    89   102      0   0   0
    89    89      0   0   1
    89    89      0   0  -1
    90    77      0   0   0
    90    78      0   0   0
    90    89      0   0   0
    90    91      0   0   0
    90   102      0   0   0
    90   103      0   0   0
    90    90      0   0   1
    90    90      0   0  -1
    91    78      0   0   0
    91    79      0   0   0
    91    90      0   0   0
    91    92      0   0   0
    91   103      0   0   0
    91   104      0   0   0
    91    91      0   0   1
    91    91      0   0  -1
    92    79      0   0   0
    92    80      0   0   0
    92    91      0   0   0
    92    93      0   0   0
    92   104      0   0   0
    92   105      0   0   0
    92    92      0   0   1
    92    92      0   0  -1
    93    80      0   0   0
    93    81      0   0   0
    93    92      0   0   0
    93    94      0   0   0
    93   105      0   0   0
    93   106      0   0   0
    93    93      0   0   1
    93    93      0   0  -1
    94    81      0   0   0
    94    82      0   0   0
    94    93      0   0   0
    94    95      0   0   0
    94   106      0   0   0
    94   107      0   0   0
    94    94      0   0   1
    94    94      0   0  -1
    95    82      0   0   0
    95    83      0   0   0
    95    94      0   0   0
    95    96      0   0   0
    95   107      0   0   0
    95   108      0   0   0
    95    95      0   0   1
    95    95      0   0  -1
    96    83      0   0   0
    96    84      0   0   0
    96    95      0   0   0
    96   108      0   0   0
    96    85      0   1   0
    96    97      0   1   0
    96    96      0   0   1
    96    96      0   0  -1
    97    85      0   0   0
    97    98      0   0   0
    97   109      0   0   0
    97   110      0   0   0
    97    96      0  -1   0
    97   108      0  -1   0
    97    97      0   0   1
    97    97      0   0  -1
    98    85      0   0   0
    98    86      0   0   0
    98    97      0   0   0
    98    99      0   0   0
    98   110      0   0   0
    98   111      0   0   0
    98    98      0   0   1
    98    98      0   0  -1
    99    86      0   0   0
    99    87      0   0   0
    99    98      0   0   0
    99   100      0   0   0
    99   111      0   0   0
    99   112      0   0   0
    99    99      0   0   1
    99    99      0   0  -1
   100    87      0   0   0
   100    88      0   0   0
   100    99      0   0   0
   100   101      0   0   0
   100   112      0   0   0
   100   113      0   0   0
   100   100      0   0   1
   100   100      0   0  -1
   101    88      0   0   0
   101    89      0   0   0
   101   100      0   0   0
   101   102      0   0   0
   101   113      0   0   0
   101   114      0   0   0
   101   101      0   0   1
   101   101      0   0  -1
   102    89      0   0   0
   102    90      0   0   0
   102   101      0   0   0
   102   103      0   0   0
   102   114      0   0   0
   102   115      0   0   0
   102   102      0   0   1
   102   102      0   0  -1
   103    90      0   0   0
   103    91      0   0   0
   103   102      0   0   0
   103   104      0   0   0
   103   115      0   0   0
   103   116      0   0   0
   103   103      0   0   1
   103   103      0   0  -1
   104    91      0   0   0
   104    92      0   0   0
   104   103      0   0   0
   104   105      0   0   0
   104   116      0   0   0
   104   117      0   0   0
   104   104      0   0   1
   104   104      0   0  -1
   105    92      0   0   0
   105    93      0   0   0
   105   104      0   0   0
   105   106      0   0   0
   105   117      0   0   0
   105   118      0   0   0
   105   105      0   0   1
   105   105      0   0  -1
   106    93      0   0   0
   106    94      0   0   0
   106   105      0   0   0
   106   107      0   0   0
   106   118      0   0   0
   106   119      0   0   0
   106   106      0   0   1
   106   106      0   0  -1
   107    94      0   0   0
   107    95      0   0   0
   107   106      0   0   0
   107   108      0   0   0
   107   119      0   0   0
   107   120      0   0   0
   107   107      0   0   1
   107   107      0   0  -1
   108    95      0   0   0
   108    96      0   0   0
   108   107      0   0   0
   108   120      0   0   0
   108    97      0   1   0
   108   109      0   1   0
   108   108      0   0   1
   108   108      0   0  -1
   109    97      0   0   0
   109   110      0   0   0
   109   121      0   0   0
   109   122      0   0   0
   109   108      0  -1   0
   109   120      0  -1   0
   109   109      0   0   1
   109   109      0   0  -1
   110    97      0   0   0
   110    98      0   0   0
   110   109      0   0   0
   110   111      0   0   0
   110   122      0   0   0
   110   123      0   0   0
   110   110      0   0   1
   110   110      0   0  -1
   111    98      0   0   0
   111    99      0   0   0
   111   110      0   0   0
   111   112      0   0   0
   111   123      0   0   0
   111   124      0   0   0
   111   111      0   0   1
   111   111      0   0  -1
   112    99      0   0   0
   112   100      0   0   0
   112   111      0   0   0
   112   113      0   0   0
   112   124      0   0   0
   112   125      0   0   0
   112   112      0   0   1
   112   112      0   0  -1
   113   100      0   0   0
   113   101      0   0   0
   113   112      0   0   0
   113   114      0   0   0
   113   125      0   0   0
   113   126      0   0   0
   113   113      0   0   1
   113   113      0   0  -1
   114   101      0   0   0
   114   102      0   0   0
   114   113      0   0   0
   114   115      0   0   0
   114   126      0   0   0
   114   127      0   0   0
   114   114      0   0   1
   114   114      0   0  -1
   115   102      0   0   0
   115   103      0   0   0
   115   114      0   0   0
   115   116      0   0   0
   115   127      0   0   0
   115   128      0   0   0
   115   115      0   0   1
   115   115      0   0  -1
   116   103      0   0   0
   116   104      0   0   0
   116   115      0   0   0
   116   117      0   0   0
   116   128      0   0   0
   116   129      0   0   0
   116   116      0   0   1
   116   116      0   0  -1
   117   104      0   0   0
   117   105      0   0   0
   117   116      0   0   0
   117   118      0   0   0
   117   129      0   0   0
   117   130      0   0   0
   117   117      0   0   1
   117   117      0   0  -1
   118   105      0   0   0
   118   106      0   0   0
   118   117      0   0   0
   118   119      0   0   0
   118   130      0   0   0
   118   131      0   0   0
   118   118      0   0   1
   118   118      0   0  -1
   119   106      0   0   0
   119   107      0   0   0
   119   118      0   0   0
   119   120      0   0   0
   119   131      0   0   0
   119   132      0   0   0
   119   119      0   0   1
   119   119      0   0  -1
   120   107      0   0   0
   120   108      0   0   0
   120   119      0   0   0
   120   132      0   0   0
   120   109      0   1   0
   120   121      0   1   0
   120   120      0   0   1
   120   120      0   0  -1
   121   109      0   0   0
   121   122      0   0   0
   121   133      0   0   0
   121   134      0   0   0
   121   120      0  -1   0
   121   132      0  -1   0
   121   121      0   0   1
   121   121      0   0  -1
   122   109      0   0   0
   122   110      0   0   0
   122   121      0   0   0
   122   123      0   0   0
   122   134      0   0   0
   122   135      0   0   0
   122   122      0   0   1
   122   122      0   0  -1
   123   110      0   0   0
   123   111      0   0   0
   123   122      0   0   0
   123   124      0   0   0
   123   135      0   0   0
   123   136      0   0   0
   123   123      0   0   1
   123   123      0   0  -1
   124   111      0   0   0
   124   112      0   0   0
   124   123      0   0   0
   124   125      0   0   0
   124   136      0   0   0
   124   137      0   0   0
   124   124      0   0   1
   124   124      0   0  -1
   125   112      0   0   0
   125   113      0   0   0
   125   124      0   0   0
   125   126      0   0   0
   125   137      0   0   0
   125   138      0   0   0
   125   125      0   0   1
   125   125      0   0  -1
   126   113      0   0   0
   126   114      0   0   0
   126   125      0   0   0
   126   127      0   0   0
   126   138      0   0   0
   126   139      0   0   0
   126   126      0   0   1
   126   126      0   0  -1
   127   114      0   0   0
   127   115      0   0   0
   127   126      0   0   0
   127   128      0   0   0
   127   139      0   0   0
   127   140      0   0   0
   127   127      0   0   1
   127   127      0   0  -1
   128   115      0   0   0
   128   116      0   0   0
   128   127      0   0   0
   128   129      0   0   0
   128   140      0   0   0
   128   141      0   0   0
   128   128      0   0   1
   128   128      0   0  -1
   129   116      0   0   0
   129   117      0   0   0
   129   128      0   0   0
   129   130      0   0   0
   129   141      0   0   0
   129   142      0   0   0
   129   129      0   0   1
   129   129      0   0  -1
   130   117      0   0   0
   130   118      0   0   0
   130   129      0   0   0
   130   131      0   0   0
   130   142      0   0   0
   130   143      0   0   0
   130   130      0   0   1
   130   130      0   0  -1
   131   118      0   0   0
   131   119      0   0   0
   131   130      0   0   0
   131   132      0   0   0
   131   143      0   0   0
   131   144      0   0   0
   131   131      0   0   1
   131   131      0   0  -1
   132   119      0   0   0
   132   120      0   0   0
   132   131      0   0   0
   132   144      0   0   0
   132   121      0   1   0
   132   133      0   1   0
   132   132      0   0   1
   132   132      0   0  -1
   133   121      0   0   0
   133   134      0   0   0
   133     1      1   0   0
   133     2      1   0   0
   133   132      0  -1   0
   133   144      0  -1   0
   133   133      0   0   1
   133   133      0   0  -1
   134   121      0   0   0
   134   122      0   0   0
   134   133      0   0   0
   134   135      0   0   0
   134     2      1   0   0
   134     3      1   0   0
   134   134      0   0   1
   134   134      0   0  -1
   135   122      0   0   0
   135   123      0   0   0
   135   134      0   0   0
   135   136      0   0   0
   135     3      1   0   0
   135     4      1   0   0
   135   135      0   0   1
   135   135      0   0  -1
   136   123      0   0   0
   136   124      0   0   0
   136   135      0   0   0
   136   137      0   0   0
   136     4      1   0   0
   136     5      1   0   0
   136   136      0   0   1
   136   136      0   0  -1
   137   124      0   0   0
   137   125      0   0   0
   137   136      0   0   0
   137   138      0   0   0
   137     5      1   0   0
   137     6      1   0   0
   137   137      0   0   1
   137   137      0   0  -1
   138   125      0   0   0
   138   126      0   0   0
   138   137      0   0   0
   138   139      0   0   0
   138     6      1   0   0
   138     7      1   0   0
   138   138      0   0   1
   138   138      0   0  -1
   139   126      0   0   0
   139   127      0   0   0
   139   138      0   0   0
   139   140      0   0   0
   139     7      1   0   0
   139     8      1   0   0
   139   139      0   0   1
   139   139      0   0  -1
   140   127      0   0   0
   140   128      0   0   0
   140   139      0   0   0
   140   141      0   0   0
   140     8      1   0   0
   140     9      1   0   0
   140   140      0   0   1
   140   140      0   0  -1
   141   128      0   0   0
   141   129      0   0   0
   141   140      0   0   0
   141   142      0   0   0
   141     9      1   0   0
   141    10      1   0   0
   141   141      0   0   1
   141   141      0   0  -1
   142   129      0   0   0
   142   130      0   0   0
   142   141      0   0   0
   142   143      0   0   0
   142    10      1   0   0
   142    11      1   0   0
   142   142      0   0   1
   142   142      0   0  -1
   143   130      0   0   0
   143   131      0   0   0
   143   142      0   0   0
   143   144      0   0   0
   143    11      1   0   0
   143    12      1   0   0
   143   143      0   0   1
   143   143      0   0  -1
   144   131      0   0   0
   144   132      0   0   0
   144   143      0   0   0
   144     1      1   1   0
   144    12      1   0   0
   144   133      0   1   0
   144   144      0   0   1
   144   144      0   0  -1
end nnkpts

begin exclude_bands
   0
end exclude_bands
